10030309
  -OEChem-09082500132D

 81 86  0     0  0  0  0  0  0999 V2000
    2.0000   -0.2900    0.0000 O   0  0  0  0  0  0  0  0  0  0  0  0
    3.3443   -2.5251    0.0000 N   0  0  0  0  0  0  0  0  0  0  0  0
    3.1508    2.4908    0.0000 N   0  0  0  0  0  0  0  0  0  0  0  0
    6.2245   -2.1150    0.0000 N   0  0  0  0  0  0  0  0  0  0  0  0
    6.3584    0.2755    0.0000 N   0  0  0  0  0  0  0  0  0  0  0  0
    3.0905   -3.1326    0.0000 C   0  0  0  0  0  0  0  0  0  0  0  0
    3.4425    3.0113    0.0000 C   0  0  0  0  0  0  0  0  0  0  0  0
    4.0874   -3.1942    0.0000 C   0  0  0  0  0  0  0  0  0  0  0  0
    4.1290    2.2829    0.0000 C   0  0  0  0  0  0  0  0  0  0  0  0
    3.5522   -1.5469    0.0000 C   0  0  0  0  0  0  0  0  0  0  0  0
    2.5169    1.6392    0.0000 C   0  0  0  0  0  0  0  0  0  0  0  0
    2.4781   -3.9231    0.0000 C   0  0  0  0  0  0  0  0  0  0  0  0
    3.6583    3.9877    0.0000 C   0  0  0  0  0  0  0  0  0  0  0  0
    2.7819   -2.1827    0.0000 C   0  0  0  0  0  0  0  0  0  0  0  0
    2.5129    2.6401    0.0000 C   0  0  0  0  0  0  0  0  0  0  0  0
    6.5100   -2.5957    0.0000 C   0  0  0  0  0  0  0  0  0  0  0  0
    4.6606    0.6822    0.0000 C   0  0  0  0  0  0  0  0  0  0  0  0
    2.8090   -0.8778    0.0000 C   0  0  0  0  0  0  0  0  0  0  0  0
    2.3090    0.6610    0.0000 C   0  0  0  0  0  0  0  0  0  0  0  0
    5.5554   -2.8581    0.0000 C   0  0  0  0  0  0  0  0  0  0  0  0
    5.6153    0.9446    0.0000 C   0  0  0  0  0  0  0  0  0  0  0  0
    5.4814   -1.4458    0.0000 C   0  0  0  0  0  0  0  0  0  0  0  0
    5.6893   -0.4677    0.0000 C   0  0  0  0  0  0  0  0  0  0  0  0
    7.3209   -3.1809    0.0000 C   0  0  0  0  0  0  0  0  0  0  0  0
    3.9637    1.3993    0.0000 C   0  0  0  0  0  0  0  0  0  0  0  0
    2.8564   -4.8488    0.0000 C   0  0  0  0  0  0  0  0  0  0  0  0
    2.9207    4.6628    0.0000 C   0  0  0  0  0  0  0  0  0  0  0  0
    6.4582   -1.6070    0.0000 C   0  0  0  0  0  0  0  0  0  0  0  0
    4.7124   -0.3065    0.0000 C   0  0  0  0  0  0  0  0  0  0  0  0
    4.3964   -4.1453    0.0000 C   0  0  0  0  0  0  0  0  0  0  0  0
    5.0800    2.5919    0.0000 C   0  0  0  0  0  0  0  0  0  0  0  0
    5.3475   -3.8363    0.0000 C   0  0  0  0  0  0  0  0  0  0  0  0
    5.8232    1.9227    0.0000 C   0  0  0  0  0  0  0  0  0  0  0  0
    3.6180   -0.2900    0.0000 C   0  0  0  0  0  0  0  0  0  0  0  0
    3.3090    0.6610    0.0000 C   0  0  0  0  0  0  0  0  0  0  0  0
    8.2332   -2.7712    0.0000 C   0  0  0  0  0  0  0  0  0  0  0  0
    2.9941    1.1542    0.0000 C   0  0  0  0  0  0  0  0  0  0  0  0
    2.2439   -5.6393    0.0000 C   0  0  0  0  0  0  0  0  0  0  0  0
    3.1365    5.6393    0.0000 C   0  0  0  0  0  0  0  0  0  0  0  0
    9.0441   -3.3564    0.0000 C   0  0  0  0  0  0  0  0  0  0  0  0
    2.7216    0.1921    0.0000 C   0  0  0  0  0  0  0  0  0  0  0  0
    2.0614   -3.4640    0.0000 H   0  0  0  0  0  0  0  0  0  0  0  0
    1.9536   -4.2538    0.0000 H   0  0  0  0  0  0  0  0  0  0  0  0
    4.2313    3.7508    0.0000 H   0  0  0  0  0  0  0  0  0  0  0  0
    3.9911    4.5108    0.0000 H   0  0  0  0  0  0  0  0  0  0  0  0
    2.1866   -2.0094    0.0000 H   0  0  0  0  0  0  0  0  0  0  0  0
    1.9989    2.9868    0.0000 H   0  0  0  0  0  0  0  0  0  0  0  0
    2.7546   -2.7167    0.0000 H   0  0  0  0  0  0  0  0  0  0  0  0
    2.8598    3.0382    0.0000 H   0  0  0  0  0  0  0  0  0  0  0  0
    6.8763   -3.6130    0.0000 H   0  0  0  0  0  0  0  0  0  0  0  0
    7.6693   -3.6938    0.0000 H   0  0  0  0  0  0  0  0  0  0  0  0
    4.4765    1.7476    0.0000 H   0  0  0  0  0  0  0  0  0  0  0  0
    3.7097    1.9649    0.0000 H   0  0  0  0  0  0  0  0  0  0  0  0
    3.2731   -5.3078    0.0000 H   0  0  0  0  0  0  0  0  0  0  0  0
    3.3809   -4.5181    0.0000 H   0  0  0  0  0  0  0  0  0  0  0  0
    2.3477    4.8997    0.0000 H   0  0  0  0  0  0  0  0  0  0  0  0
    2.5878    4.1397    0.0000 H   0  0  0  0  0  0  0  0  0  0  0  0
    6.9203   -1.1936    0.0000 H   0  0  0  0  0  0  0  0  0  0  0  0
    4.2504   -0.7199    0.0000 H   0  0  0  0  0  0  0  0  0  0  0  0
    4.1149   -4.6977    0.0000 H   0  0  0  0  0  0  0  0  0  0  0  0
    5.2089    3.1983    0.0000 H   0  0  0  0  0  0  0  0  0  0  0  0
    5.8082   -4.2511    0.0000 H   0  0  0  0  0  0  0  0  0  0  0  0
    6.4128    2.1143    0.0000 H   0  0  0  0  0  0  0  0  0  0  0  0
    4.2077   -0.4816    0.0000 H   0  0  0  0  0  0  0  0  0  0  0  0
    3.6734    1.1626    0.0000 H   0  0  0  0  0  0  0  0  0  0  0  0
    8.6778   -2.3391    0.0000 H   0  0  0  0  0  0  0  0  0  0  0  0
    7.8848   -2.2583    0.0000 H   0  0  0  0  0  0  0  0  0  0  0  0
    2.9489    1.7726    0.0000 H   0  0  0  0  0  0  0  0  0  0  0  0
    2.3773    1.2171    0.0000 H   0  0  0  0  0  0  0  0  0  0  0  0
    1.7538   -5.2595    0.0000 H   0  0  0  0  0  0  0  0  0  0  0  0
    1.8642   -6.1294    0.0000 H   0  0  0  0  0  0  0  0  0  0  0  0
    2.7341   -6.0190    0.0000 H   0  0  0  0  0  0  0  0  0  0  0  0
    3.7419    5.5054    0.0000 H   0  0  0  0  0  0  0  0  0  0  0  0
    3.2703    6.2446    0.0000 H   0  0  0  0  0  0  0  0  0  0  0  0
    2.5311    5.7731    0.0000 H   0  0  0  0  0  0  0  0  0  0  0  0
    8.6813   -3.8591    0.0000 H   0  0  0  0  0  0  0  0  0  0  0  0
    9.5468   -3.7192    0.0000 H   0  0  0  0  0  0  0  0  0  0  0  0
    9.4069   -2.8536    0.0000 H   0  0  0  0  0  0  0  0  0  0  0  0
    2.1251    0.3611    0.0000 H   0  0  0  0  0  0  0  0  0  0  0  0
    2.5526   -0.4044    0.0000 H   0  0  0  0  0  0  0  0  0  0  0  0
    3.3181    0.0231    0.0000 H   0  0  0  0  0  0  0  0  0  0  0  0
  1 18  1  0  0  0  0
  1 19  1  0  0  0  0
  2  8  1  0  0  0  0
  2 10  1  0  0  0  0
  2 48  1  0  0  0  0
  3  9  1  0  0  0  0
  3 11  1  0  0  0  0
  3 49  1  0  0  0  0
  4 20  2  0  0  0  0
  4 22  1  0  0  0  0
  5 21  2  0  0  0  0
  5 23  1  0  0  0  0
  6  8  2  0  0  0  0
  6 12  1  0  0  0  0
  6 14  1  0  0  0  0
  7  9  2  0  0  0  0
  7 13  1  0  0  0  0
  7 15  1  0  0  0  0
  8 30  1  0  0  0  0
  9 31  1  0  0  0  0
 10 14  2  0  0  0  0
 10 18  1  0  0  0  0
 11 15  2  0  0  0  0
 11 19  1  0  0  0  0
 12 26  1  0  0  0  0
 12 42  1  0  0  0  0
 12 43  1  0  0  0  0
 13 27  1  0  0  0  0
 13 44  1  0  0  0  0
 13 45  1  0  0  0  0
 14 46  1  0  0  0  0
 15 47  1  0  0  0  0
 16 20  1  0  0  0  0
 16 24  1  0  0  0  0
 16 28  2  0  0  0  0
 17 21  1  0  0  0  0
 17 25  1  0  0  0  0
 17 29  2  0  0  0  0
 18 34  2  0  0  0  0
 19 35  2  0  0  0  0
 20 32  1  0  0  0  0
 21 33  1  0  0  0  0
 22 23  2  0  0  0  0
 22 28  1  0  0  0  0
 23 29  1  0  0  0  0
 24 36  1  0  0  0  0
 24 50  1  0  0  0  0
 24 51  1  0  0  0  0
 25 37  1  0  0  0  0
 25 52  1  0  0  0  0
 25 53  1  0  0  0  0
 26 38  1  0  0  0  0
 26 54  1  0  0  0  0
 26 55  1  0  0  0  0
 27 39  1  0  0  0  0
 27 56  1  0  0  0  0
 27 57  1  0  0  0  0
 28 58  1  0  0  0  0
 29 59  1  0  0  0  0
 30 32  2  0  0  0  0
 30 60  1  0  0  0  0
 31 33  2  0  0  0  0
 31 61  1  0  0  0  0
 32 62  1  0  0  0  0
 33 63  1  0  0  0  0
 34 35  1  0  0  0  0
 34 64  1  0  0  0  0
 35 65  1  0  0  0  0
 36 40  1  0  0  0  0
 36 66  1  0  0  0  0
 36 67  1  0  0  0  0
 37 41  1  0  0  0  0
 37 68  1  0  0  0  0
 37 69  1  0  0  0  0
 38 70  1  0  0  0  0
 38 71  1  0  0  0  0
 38 72  1  0  0  0  0
 39 73  1  0  0  0  0
 39 74  1  0  0  0  0
 39 75  1  0  0  0  0
 40 76  1  0  0  0  0
 40 77  1  0  0  0  0
 40 78  1  0  0  0  0
 41 79  1  0  0  0  0
 41 80  1  0  0  0  0
 41 81  1  0  0  0  0
M  END
> <PUBCHEM_COMPOUND_CID>
10030309

> <PUBCHEM_COMPOUND_CANONICALIZED>
1

> <PUBCHEM_CACTVS_COMPLEXITY>
744

> <PUBCHEM_CACTVS_HBOND_ACCEPTOR>
3

> <PUBCHEM_CACTVS_HBOND_DONOR>
2

> <PUBCHEM_CACTVS_ROTATABLE_BOND>
8

> <PUBCHEM_CACTVS_SUBSKEYS>
AAADcfB/oAAAAAAAAAAAAAAAAAAAAWLFixIAAAAAAAAAAAAB/gAAHgAQAAAADAyBngAyxrLJlECoA6RyRASCiCQnciAImSG3fNgOZvLEtbuXOSjk0BHY6YeY2eOeAAAAAAAAAAAAAAAAAAAAAAAAAAAAAA==

> <PUBCHEM_IUPAC_OPENEYE_NAME>
8,13,18,23-tetrapropyl-29-oxa-25,26,27,28-tetrazahexacyclo[20.2.1.12,5.16,9.112,15.116,19]nonacosa-1(24),2,4,6,8,10,12(27),13,15,17,19(26),20,22-tridecaene

> <PUBCHEM_IUPAC_CAS_NAME>
8,13,18,23-tetrapropyl-29-oxa-25,26,27,28-tetrazahexacyclo[20.2.1.12,5.16,9.112,15.116,19]nonacosa-1(24),2,4,6,8,10,12(27),13,15,17,19(26),20,22-tridecaene

> <PUBCHEM_IUPAC_NAME_MARKUP>
8,13,18,23-tetrapropyl-29-oxa-25,26,27,28-tetrazahexacyclo[20.2.1.1<SUP>2,5</SUP>.1<SUP>6,9</SUP>.1<SUP>12,15</SUP>.1<SUP>16,19</SUP>]nonacosa-1(24),2,4,6,8,10,12(27),13,15,17,19(26),20,22-tridecaene

> <PUBCHEM_IUPAC_NAME>
8,13,18,23-tetrapropyl-29-oxa-25,26,27,28-tetrazahexacyclo[20.2.1.12,5.16,9.112,15.116,19]nonacosa-1(24),2,4,6,8,10,12(27),13,15,17,19(26),20,22-tridecaene

> <PUBCHEM_IUPAC_SYSTEMATIC_NAME>
8,13,18,23-tetrapropyl-29-oxa-25,26,27,28-tetrazahexacyclo[20.2.1.12,5.16,9.112,15.116,19]nonacosa-1(24),2,4,6,8,10,12(27),13,15,17,19(26),20,22-tridecaene

> <PUBCHEM_IUPAC_TRADITIONAL_NAME>
8,13,18,23-tetrapropyl-29-oxa-25,26,27,28-tetrazahexacyclo[20.2.1.12,5.16,9.112,15.116,19]nonacosa-1(24),2,4,6,8,10,12(27),13,15,17,19(26),20,22-tridecaene

> <PUBCHEM_IUPAC_INCHI>
InChI=1S/C36H40N4O/c1-5-9-23-19-31-32-20-24(10-6-2)28(38-32)14-16-30-26(12-8-4)22-34(40-30)36-18-17-35(41-36)33-21-25(11-7-3)29(39-33)15-13-27(23)37-31/h13-22,39-40H,5-12H2,1-4H3

> <PUBCHEM_IUPAC_INCHIKEY>
JWPGLRBYOJDEDM-UHFFFAOYSA-N

> <PUBCHEM_XLOGP3_AA>
9.5

> <PUBCHEM_EXACT_MASS>
544.32021191

> <PUBCHEM_MOLECULAR_FORMULA>
C36H40N4O

> <PUBCHEM_MOLECULAR_WEIGHT>
544.7

> <PUBCHEM_SMILES>
CCCC1=CC2=C3C=C(C(=N3)C=CC4=C(C=C(N4)C5=CC=C(O5)C6=CC(=C(N6)C=CC1=N2)CCC)CCC)CCC

> <PUBCHEM_CONNECTIVITY_SMILES>
CCCC1=CC2=C3C=C(C(=N3)C=CC4=C(C=C(N4)C5=CC=C(O5)C6=CC(=C(N6)C=CC1=N2)CCC)CCC)CCC

> <PUBCHEM_CACTVS_TPSA>
70.5

> <PUBCHEM_MONOISOTOPIC_WEIGHT>
544.32021191

> <PUBCHEM_TOTAL_CHARGE>
0

> <PUBCHEM_HEAVY_ATOM_COUNT>
41

> <PUBCHEM_ATOM_DEF_STEREO_COUNT>
0

> <PUBCHEM_ATOM_UDEF_STEREO_COUNT>
0

> <PUBCHEM_BOND_DEF_STEREO_COUNT>
0

> <PUBCHEM_BOND_UDEF_STEREO_COUNT>
0

> <PUBCHEM_ISOTOPIC_ATOM_COUNT>
0

> <PUBCHEM_COMPONENT_COUNT>
1

> <PUBCHEM_CACTVS_TAUTO_COUNT>
-1

> <PUBCHEM_COORDINATE_TYPE>
1
5
255

> <PUBCHEM_BONDANNOTATIONS>
1  18  8
1  19  8
10  14  8
10  18  8
11  15  8
11  19  8
18  34  8
19  35  8
2  10  8
2  8  8
20  32  8
21  33  8
22  23  8
3  11  8
3  9  8
30  32  8
31  33  8
34  35  8
4  20  8
4  22  8
5  21  8
5  23  8
6  14  8
6  8  8
7  15  8
7  9  8
8  30  8
9  31  8

$$$$
