101479902
  -OEChem-09082500142D

 90 96  0     0  0  0  0  0  0999 V2000
    1.5000   -4.3500    0.0000 C   0  0  0  0  0  0  0  0  0  0  0  0
    4.5000  -10.3500    0.0000 C   0  0  0  0  0  0  0  0  0  0  0  0
    1.5000  -10.1500    0.0000 C   0  0  0  0  0  0  0  0  0  0  0  0
    4.5000   -4.1500    0.0000 C   0  0  0  0  0  0  0  0  0  0  0  0
    1.5000   -2.3500    0.0000 C   0  0  0  0  0  0  0  0  0  0  0  0
    4.5000  -12.3500    0.0000 C   0  0  0  0  0  0  0  0  0  0  0  0
    1.5000  -12.1500    0.0000 C   0  0  0  0  0  0  0  0  0  0  0  0
    4.5000   -2.1500    0.0000 C   0  0  0  0  0  0  0  0  0  0  0  0
    3.0000    0.0000    0.0000 C   0  0  0  0  0  0  0  0  0  0  0  0
    1.8000  -14.1500    0.0000 C   0  0  0  0  0  0  0  0  0  0  0  0
    0.7500   -6.3500    0.0000 C   0  0  0  0  0  0  0  0  0  0  0  0
    5.5000   -8.1500    0.0000 C   0  0  0  0  0  0  0  0  0  0  0  0
    2.5000   -7.8000    0.0000 C   0  0  0  0  0  0  0  0  0  0  0  0
    3.7500   -5.8000    0.0000 C   0  0  0  0  0  0  0  0  0  0  0  0
    2.2500   -6.1500    0.0000 C   0  0  0  0  0  0  0  0  0  0  0  0
    4.5000   -8.3500    0.0000 C   0  0  0  0  0  0  0  0  0  0  0  0
    1.5000   -8.1500    0.0000 C   0  0  0  0  0  0  0  0  0  0  0  0
    5.2500   -6.0000    0.0000 C   0  0  0  0  0  0  0  0  0  0  0  0
    0.5000   -8.3500    0.0000 C   0  0  0  0  0  0  0  0  0  0  0  0
    5.5000  -10.1500    0.0000 C   0  0  0  0  0  0  0  0  0  0  0  0
    2.5000   -9.8000    0.0000 C   0  0  0  0  0  0  0  0  0  0  0  0
    3.5000   -8.0000    0.0000 C   0  0  0  0  0  0  0  0  0  0  0  0
    0.5000  -10.3500    0.0000 C   0  0  0  0  0  0  0  0  0  0  0  0
    5.5000  -12.1500    0.0000 C   0  0  0  0  0  0  0  0  0  0  0  0
    2.5000  -11.8000    0.0000 C   0  0  0  0  0  0  0  0  0  0  0  0
    3.5000  -10.0000    0.0000 C   0  0  0  0  0  0  0  0  0  0  0  0
    0.5000  -12.3500    0.0000 C   0  0  0  0  0  0  0  0  0  0  0  0
    5.4000  -14.3500    0.0000 C   0  0  0  0  0  0  0  0  0  0  0  0
    3.0000  -13.8000    0.0000 C   0  0  0  0  0  0  0  0  0  0  0  0
    3.5000  -12.0000    0.0000 C   0  0  0  0  0  0  0  0  0  0  0  0
    0.6000  -14.3500    0.0000 C   0  0  0  0  0  0  0  0  0  0  0  0
    5.5000  -16.1500    0.0000 C   0  0  0  0  0  0  0  0  0  0  0  0
    2.5000  -15.8000    0.0000 C   0  0  0  0  0  0  0  0  0  0  0  0
    4.2000  -14.0000    0.0000 C   0  0  0  0  0  0  0  0  0  0  0  0
    1.5000  -16.1500    0.0000 C   0  0  0  0  0  0  0  0  0  0  0  0
    5.2500  -18.0000    0.0000 C   0  0  0  0  0  0  0  0  0  0  0  0
    0.5000  -16.3500    0.0000 C   0  0  0  0  0  0  0  0  0  0  0  0
    3.7500  -17.8000    0.0000 C   0  0  0  0  0  0  0  0  0  0  0  0
    2.2500  -18.1500    0.0000 C   0  0  0  0  0  0  0  0  0  0  0  0
    4.5000  -16.3500    0.0000 C   0  0  0  0  0  0  0  0  0  0  0  0
    0.7500  -18.3500    0.0000 C   0  0  0  0  0  0  0  0  0  0  0  0
    3.5000  -16.0000    0.0000 C   0  0  0  0  0  0  0  0  0  0  0  0
    0.5474   -1.1439    0.0000 H   0  0  0  0  0  0  0  0  0  0  0  0
    2.9753   -2.7807    0.0000 H   0  0  0  0  0  0  0  0  0  0  0  0
    5.0872  -13.7703    0.0000 H   0  0  0  0  0  0  0  0  0  0  0  0
    6.0075  -12.0507    0.0000 H   0  0  0  0  0  0  0  0  0  0  0  0
    0.1325  -11.4485    0.0000 H   0  0  0  0  0  0  0  0  0  0  0  0
    3.0327  -12.0357    0.0000 H   0  0  0  0  0  0  0  0  0  0  0  0
    3.0338   -2.6109    0.0000 H   0  0  0  0  0  0  0  0  0  0  0  0
    5.9586   -2.6343    0.0000 H   0  0  0  0  0  0  0  0  0  0  0  0
    4.1346    1.0367    0.0000 H   0  0  0  0  0  0  0  0  0  0  0  0
    1.8238    0.9893    0.0000 H   0  0  0  0  0  0  0  0  0  0  0  0
    0.3296  -14.5972    0.0000 H   0  0  0  0  0  0  0  0  0  0  0  0
    2.4569  -15.5395    0.0000 H   0  0  0  0  0  0  0  0  0  0  0  0
    3.7302   -5.7362    0.0000 H   0  0  0  0  0  0  0  0  0  0  0  0
    2.9788   -8.5691    0.0000 H   0  0  0  0  0  0  0  0  0  0  0  0
    3.0071   -7.8486    0.0000 H   0  0  0  0  0  0  0  0  0  0  0  0
    6.7390   -5.6191    0.0000 H   0  0  0  0  0  0  0  0  0  0  0  0
   -0.7628   -7.4740    0.0000 H   0  0  0  0  0  0  0  0  0  0  0  0
    2.0340   -8.4455    0.0000 H   0  0  0  0  0  0  0  0  0  0  0  0
    6.8310  -10.9185    0.0000 H   0  0  0  0  0  0  0  0  0  0  0  0
    3.9631  -10.1500    0.0000 H   0  0  0  0  0  0  0  0  0  0  0  0
    3.8310  -10.5685    0.0000 H   0  0  0  0  0  0  0  0  0  0  0  0
    0.9631   -9.8000    0.0000 H   0  0  0  0  0  0  0  0  0  0  0  0
    2.2307   -7.1334    0.0000 H   0  0  0  0  0  0  0  0  0  0  0  0
    5.0345   -8.0869    0.0000 H   0  0  0  0  0  0  0  0  0  0  0  0
    1.8310  -11.1185    0.0000 H   0  0  0  0  0  0  0  0  0  0  0  0
   -1.0369  -10.3500    0.0000 H   0  0  0  0  0  0  0  0  0  0  0  0
    6.8071  -12.9584    0.0000 H   0  0  0  0  0  0  0  0  0  0  0  0
    3.9635  -12.1151    0.0000 H   0  0  0  0  0  0  0  0  0  0  0  0
    1.1107  -11.1427    0.0000 H   0  0  0  0  0  0  0  0  0  0  0  0
    4.0254  -11.6122    0.0000 H   0  0  0  0  0  0  0  0  0  0  0  0
    4.8310  -10.7685    0.0000 H   0  0  0  0  0  0  0  0  0  0  0  0
    1.9631  -10.0000    0.0000 H   0  0  0  0  0  0  0  0  0  0  0  0
   -0.8436  -11.6038    0.0000 H   0  0  0  0  0  0  0  0  0  0  0  0
    2.0364  -12.3116    0.0000 H   0  0  0  0  0  0  0  0  0  0  0  0
    4.0781  -13.5659    0.0000 H   0  0  0  0  0  0  0  0  0  0  0  0
    6.9369  -14.3423    0.0000 H   0  0  0  0  0  0  0  0  0  0  0  0
    4.2639  -14.6745    0.0000 H   0  0  0  0  0  0  0  0  0  0  0  0
    1.4631  -13.8000    0.0000 H   0  0  0  0  0  0  0  0  0  0  0  0
    2.0913  -11.3854    0.0000 H   0  0  0  0  0  0  0  0  0  0  0  0
    5.0152  -11.7425    0.0000 H   0  0  0  0  0  0  0  0  0  0  0  0
    0.0912  -16.7643    0.0000 H   0  0  0  0  0  0  0  0  0  0  0  0
    5.4738  -19.5205    0.0000 H   0  0  0  0  0  0  0  0  0  0  0  0
   -1.0359  -16.4072    0.0000 H   0  0  0  0  0  0  0  0  0  0  0  0
    3.2398  -19.2498    0.0000 H   0  0  0  0  0  0  0  0  0  0  0  0
    2.4437  -19.6747    0.0000 H   0  0  0  0  0  0  0  0  0  0  0  0
    5.9784  -15.9300    0.0000 H   0  0  0  0  0  0  0  0  0  0  0  0
    0.3868  -19.8434    0.0000 H   0  0  0  0  0  0  0  0  0  0  0  0
    1.9707  -15.8476    0.0000 H   0  0  0  0  0  0  0  0  0  0  0  0
  1  5  1  0  0  0  0
  1 11  2  0  0  0  0
  1 15  1  0  0  0  0
  2  6  1  0  0  0  0
  2 12  2  0  0  0  0
  2 16  1  0  0  0  0
  3  7  1  0  0  0  0
  3 13  1  0  0  0  0
  3 17  2  0  0  0  0
  4  8  1  0  0  0  0
  4 14  1  0  0  0  0
  4 18  2  0  0  0  0
  5  9  1  0  0  0  0
  5 43  1  0  0  0  0
  5 44  1  0  0  0  0
  6 10  1  0  0  0  0
  6 45  1  0  0  0  0
  6 46  1  0  0  0  0
  7 10  1  0  0  0  0
  7 47  1  0  0  0  0
  7 48  1  0  0  0  0
  8  9  1  0  0  0  0
  8 49  1  0  0  0  0
  8 50  1  0  0  0  0
  9 51  1  0  0  0  0
  9 52  1  0  0  0  0
 10 53  1  0  0  0  0
 10 54  1  0  0  0  0
 11 17  1  0  0  0  0
 11 19  1  0  0  0  0
 12 18  1  0  0  0  0
 12 20  1  0  0  0  0
 13 15  2  0  0  0  0
 13 21  1  0  0  0  0
 14 16  2  0  0  0  0
 14 22  1  0  0  0  0
 15 55  1  0  0  0  0
 16 56  1  0  0  0  0
 17 57  1  0  0  0  0
 18 58  1  0  0  0  0
 19 23  1  0  0  0  0
 19 59  1  0  0  0  0
 19 60  1  0  0  0  0
 20 24  1  0  0  0  0
 20 61  1  0  0  0  0
 20 62  1  0  0  0  0
 21 25  1  0  0  0  0
 21 63  1  0  0  0  0
 21 64  1  0  0  0  0
 22 26  1  0  0  0  0
 22 65  1  0  0  0  0
 22 66  1  0  0  0  0
 23 27  1  0  0  0  0
 23 67  1  0  0  0  0
 23 68  1  0  0  0  0
 24 28  1  0  0  0  0
 24 69  1  0  0  0  0
 24 70  1  0  0  0  0
 25 29  1  0  0  0  0
 25 71  1  0  0  0  0
 25 72  1  0  0  0  0
 26 30  1  0  0  0  0
 26 73  1  0  0  0  0
 26 74  1  0  0  0  0
 27 31  1  0  0  0  0
 27 75  1  0  0  0  0
 27 76  1  0  0  0  0
 28 32  1  0  0  0  0
 28 77  1  0  0  0  0
 28 78  1  0  0  0  0
 29 33  1  0  0  0  0
 29 79  1  0  0  0  0
 29 80  1  0  0  0  0
 30 34  1  0  0  0  0
 30 81  1  0  0  0  0
 30 82  1  0  0  0  0
 31 35  2  0  0  0  0
 31 37  1  0  0  0  0
 32 36  2  0  0  0  0
 32 38  1  0  0  0  0
 33 39  2  0  0  0  0
 33 41  1  0  0  0  0
 34 40  2  0  0  0  0
 34 42  1  0  0  0  0
 35 39  1  0  0  0  0
 35 83  1  0  0  0  0
 36 40  1  0  0  0  0
 36 84  1  0  0  0  0
 37 41  2  0  0  0  0
 37 85  1  0  0  0  0
 38 42  2  0  0  0  0
 38 86  1  0  0  0  0
 39 87  1  0  0  0  0
 40 88  1  0  0  0  0
 41 89  1  0  0  0  0
 42 90  1  0  0  0  0
M  END
> <PUBCHEM_COMPOUND_CID>
101479902

> <PUBCHEM_COMPOUND_CANONICALIZED>
1

> <PUBCHEM_CACTVS_COMPLEXITY>
652

> <PUBCHEM_CACTVS_HBOND_ACCEPTOR>
0

> <PUBCHEM_CACTVS_HBOND_DONOR>
0

> <PUBCHEM_CACTVS_ROTATABLE_BOND>
0

> <PUBCHEM_CACTVS_SUBSKEYS>
AAADcfB8AAAAAAAAAAAAAAAAAAAAAAAAAAAwYMGAAAAAAAABVAAAGAAAAAAADACAGAAwAIAAAACAAiBCAAACAAAgAAAIiAAAAIgIICKAERCAIAAggAAIiAcAgMAOwAACAAAQAACAAAQAACAAAAAAAAAAAA==

> <PUBCHEM_IUPAC_OPENEYE_NAME>
heptacyclo[34.2.2.217,20.05,30.07,32.011,24.013,26]dotetraconta-1(39),5,7(32),11,13(26),17,19,24,30,36(40),37,41-dodecaene

> <PUBCHEM_IUPAC_CAS_NAME>
heptacyclo[34.2.2.217,20.05,30.07,32.011,24.013,26]dotetraconta-1(39),5,7(32),11,13(26),17,19,24,30,36(40),37,41-dodecaene

> <PUBCHEM_IUPAC_NAME_MARKUP>
heptacyclo[34.2.2.2<SUP>17,20</SUP>.0<SUP>5,30</SUP>.0<SUP>7,32</SUP>.0<SUP>11,24</SUP>.0<SUP>13,26</SUP>]dotetraconta-1(39),5,7(32),11,13(26),17,19,24,30,36(40),37,41-dodecaene

> <PUBCHEM_IUPAC_NAME>
heptacyclo[34.2.2.217,20.05,30.07,32.011,24.013,26]dotetraconta-1(39),5,7(32),11,13(26),17,19,24,30,36(40),37,41-dodecaene

> <PUBCHEM_IUPAC_SYSTEMATIC_NAME>
heptacyclo[34.2.2.217,20.05,30.07,32.011,24.013,26]dotetraconta-1(39),5,7(32),11,13(26),17,19,24,30,36(40),37,41-dodecaene

> <PUBCHEM_IUPAC_TRADITIONAL_NAME>
heptacyclo[34.2.2.217,20.05,30.07,32.011,24.013,26]dotetraconta-1(39),5,7(32),11,13(26),17,19,24,30,36(40),37,41-dodecaene

> <PUBCHEM_IUPAC_INCHI>
InChI=1S/C42H48/c1-7-31-19-21-32(22-20-31)8-2-12-36-28-39-15-5-17-41-29-38-14-4-10-34-25-23-33(24-26-34)9-3-13-37(41)30-42(38)18-6-16-40(36)27-35(39)11-1/h19-30H,1-18H2

> <PUBCHEM_IUPAC_INCHIKEY>
BSUNGKZYIZVPJK-UHFFFAOYSA-N

> <PUBCHEM_XLOGP3_AA>
12.7

> <PUBCHEM_EXACT_MASS>
552.375601531

> <PUBCHEM_MOLECULAR_FORMULA>
C42H48

> <PUBCHEM_MOLECULAR_WEIGHT>
552.8

> <PUBCHEM_SMILES>
C1CC2=CC=C(CCCC3=C4CCCC5=CC6=C(CCCC(=C3)C(=C4)C1)C=C5CCCC7=CC=C(CCC6)C=C7)C=C2

> <PUBCHEM_CONNECTIVITY_SMILES>
C1CC2=CC=C(CCCC3=C4CCCC5=CC6=C(CCCC(=C3)C(=C4)C1)C=C5CCCC7=CC=C(CCC6)C=C7)C=C2

> <PUBCHEM_CACTVS_TPSA>
0

> <PUBCHEM_MONOISOTOPIC_WEIGHT>
552.375601531

> <PUBCHEM_TOTAL_CHARGE>
0

> <PUBCHEM_HEAVY_ATOM_COUNT>
42

> <PUBCHEM_ATOM_DEF_STEREO_COUNT>
0

> <PUBCHEM_ATOM_UDEF_STEREO_COUNT>
0

> <PUBCHEM_BOND_DEF_STEREO_COUNT>
0

> <PUBCHEM_BOND_UDEF_STEREO_COUNT>
0

> <PUBCHEM_ISOTOPIC_ATOM_COUNT>
0

> <PUBCHEM_COMPONENT_COUNT>
1

> <PUBCHEM_CACTVS_TAUTO_COUNT>
-1

> <PUBCHEM_COORDINATE_TYPE>
1
5
255

> <PUBCHEM_BONDANNOTATIONS>
1  11  8
1  15  8
11  17  8
12  18  8
13  15  8
14  16  8
2  12  8
2  16  8
3  13  8
3  17  8
31  35  8
31  37  8
32  36  8
32  38  8
33  39  8
33  41  8
34  40  8
34  42  8
35  39  8
36  40  8
37  41  8
38  42  8
4  14  8
4  18  8

$$$$
