101747814
  -OEChem-09082500142D

 57 63  0     0  0  0  0  0  0999 V2000
    4.6667   -8.0000    0.0000 O   0  0  0  0  0  0  0  0  0  0  0  0
    4.0000    0.0000    0.0000 O   0  0  0  0  0  0  0  0  0  0  0  0
    7.3333   -8.1500    0.0000 O   0  0  0  0  0  0  0  0  0  0  0  0
    2.8571  -15.8000    0.0000 O   0  0  0  0  0  0  0  0  0  0  0  0
    0.6667   -8.3500    0.0000 O   0  0  0  0  0  0  0  0  0  0  0  0
    0.5714  -16.3500    0.0000 O   0  0  0  0  0  0  0  0  0  0  0  0
    4.0000  -12.0000    0.0000 N   0  0  0  0  0  0  0  0  0  0  0  0
    1.0000   -4.3500    0.0000 N   0  0  0  0  0  0  0  0  0  0  0  0
    6.2857  -12.1500    0.0000 N   0  0  0  0  0  0  0  0  0  0  0  0
    5.1429  -16.3500    0.0000 N   0  0  0  0  0  0  0  0  0  0  0  0
    3.3333   -7.8000    0.0000 N   0  0  0  0  0  0  0  0  0  0  0  0
    7.4286  -15.8000    0.0000 N   0  0  0  0  0  0  0  0  0  0  0  0
    2.0000  -20.3500    0.0000 N   0  0  0  0  0  0  0  0  0  0  0  0
    2.8571  -11.8000    0.0000 N   0  0  0  0  0  0  0  0  0  0  0  0
    6.0000  -20.1500    0.0000 N   0  0  0  0  0  0  0  0  0  0  0  0
    5.6000   -6.0000    0.0000 C   0  0  0  0  0  0  0  0  0  0  0  0
    6.0000   -2.1500    0.0000 C   0  0  0  0  0  0  0  0  0  0  0  0
    7.2000   -6.3500    0.0000 C   0  0  0  0  0  0  0  0  0  0  0  0
    1.5000  -14.1500    0.0000 C   0  0  0  0  0  0  0  0  0  0  0  0
    1.0000  -10.3500    0.0000 C   0  0  0  0  0  0  0  0  0  0  0  0
    0.5000  -14.3500    0.0000 C   0  0  0  0  0  0  0  0  0  0  0  0
    5.0000   -3.8000    0.0000 C   0  0  0  0  0  0  0  0  0  0  0  0
    6.0000   -8.3500    0.0000 C   0  0  0  0  0  0  0  0  0  0  0  0
    7.0000   -4.0000    0.0000 C   0  0  0  0  0  0  0  0  0  0  0  0
    1.7143  -12.1500    0.0000 C   0  0  0  0  0  0  0  0  0  0  0  0
    1.7143  -16.1500    0.0000 C   0  0  0  0  0  0  0  0  0  0  0  0
    0.5714  -12.3500    0.0000 C   0  0  0  0  0  0  0  0  0  0  0  0
    5.0000   -9.8000    0.0000 C   0  0  0  0  0  0  0  0  0  0  0  0
    2.0000   -2.3500    0.0000 C   0  0  0  0  0  0  0  0  0  0  0  0
    7.0000  -10.0000    0.0000 C   0  0  0  0  0  0  0  0  0  0  0  0
    2.5000  -13.8000    0.0000 C   0  0  0  0  0  0  0  0  0  0  0  0
    0.8000   -6.3500    0.0000 C   0  0  0  0  0  0  0  0  0  0  0  0
    5.5000  -14.1500    0.0000 C   0  0  0  0  0  0  0  0  0  0  0  0
    5.1429  -12.3500    0.0000 C   0  0  0  0  0  0  0  0  0  0  0  0
    3.0000   -4.1500    0.0000 C   0  0  0  0  0  0  0  0  0  0  0  0
    7.4286  -11.8000    0.0000 C   0  0  0  0  0  0  0  0  0  0  0  0
    4.0000  -16.0000    0.0000 C   0  0  0  0  0  0  0  0  0  0  0  0
    2.0000   -8.1500    0.0000 C   0  0  0  0  0  0  0  0  0  0  0  0
    6.2857  -16.1500    0.0000 C   0  0  0  0  0  0  0  0  0  0  0  0
    3.5000  -14.0000    0.0000 C   0  0  0  0  0  0  0  0  0  0  0  0
    2.4000   -6.1500    0.0000 C   0  0  0  0  0  0  0  0  0  0  0  0
    6.5000  -13.8000    0.0000 C   0  0  0  0  0  0  0  0  0  0  0  0
    4.5000  -14.3500    0.0000 C   0  0  0  0  0  0  0  0  0  0  0  0
    4.0000   -5.8000    0.0000 C   0  0  0  0  0  0  0  0  0  0  0  0
    7.5000  -14.0000    0.0000 C   0  0  0  0  0  0  0  0  0  0  0  0
    2.0000  -18.3500    0.0000 C   0  0  0  0  0  0  0  0  0  0  0  0
    3.0000  -10.1500    0.0000 C   0  0  0  0  0  0  0  0  0  0  0  0
    6.0000  -18.1500    0.0000 C   0  0  0  0  0  0  0  0  0  0  0  0
    3.5151   -3.5918    0.0000 H   0  0  0  0  0  0  0  0  0  0  0  0
    5.7228   -9.8236    0.0000 H   0  0  0  0  0  0  0  0  0  0  0  0
    8.4367   -3.5709    0.0000 H   0  0  0  0  0  0  0  0  0  0  0  0
    3.2000  -11.9474    0.0000 H   0  0  0  0  0  0  0  0  0  0  0  0
    2.2286  -17.5585    0.0000 H   0  0  0  0  0  0  0  0  0  0  0  0
   -0.9166  -12.1654    0.0000 H   0  0  0  0  0  0  0  0  0  0  0  0
    2.0545  -13.6013    0.0000 H   0  0  0  0  0  0  0  0  0  0  0  0
    3.8549   -6.5129    0.0000 H   0  0  0  0  0  0  0  0  0  0  0  0
    7.9480  -14.1895    0.0000 H   0  0  0  0  0  0  0  0  0  0  0  0
  1 16  1  0  0  0  0
  1 28  1  0  0  0  0
  2 17  1  0  0  0  0
  2 29  1  0  0  0  0
  3 18  1  0  0  0  0
  3 30  1  0  0  0  0
  4 19  1  0  0  0  0
  4 31  1  0  0  0  0
  5 20  1  0  0  0  0
  5 32  1  0  0  0  0
  6 21  1  0  0  0  0
  6 33  1  0  0  0  0
  7 28  2  0  0  0  0
  7 31  1  0  0  0  0
  8 29  2  0  0  0  0
  8 32  1  0  0  0  0
  9 30  2  0  0  0  0
  9 33  1  0  0  0  0
 10 43  3  0  0  0  0
 11 44  3  0  0  0  0
 12 45  3  0  0  0  0
 13 46  3  0  0  0  0
 14 47  3  0  0  0  0
 15 48  3  0  0  0  0
 16 22  2  0  0  0  0
 16 23  1  0  0  0  0
 17 22  1  0  0  0  0
 17 24  2  0  0  0  0
 18 23  2  0  0  0  0
 18 24  1  0  0  0  0
 19 25  2  0  0  0  0
 19 26  1  0  0  0  0
 20 25  1  0  0  0  0
 20 27  2  0  0  0  0
 21 26  2  0  0  0  0
 21 27  1  0  0  0  0
 22 49  1  0  0  0  0
 23 50  1  0  0  0  0
 24 51  1  0  0  0  0
 25 52  1  0  0  0  0
 26 53  1  0  0  0  0
 27 54  1  0  0  0  0
 28 34  1  0  0  0  0
 29 35  1  0  0  0  0
 30 36  1  0  0  0  0
 31 37  2  0  0  0  0
 32 38  2  0  0  0  0
 33 39  2  0  0  0  0
 34 40  2  0  0  0  0
 34 43  1  0  0  0  0
 35 41  2  0  0  0  0
 35 44  1  0  0  0  0
 36 42  2  0  0  0  0
 36 45  1  0  0  0  0
 37 40  1  0  0  0  0
 37 46  1  0  0  0  0
 38 41  1  0  0  0  0
 38 47  1  0  0  0  0
 39 42  1  0  0  0  0
 39 48  1  0  0  0  0
 40 55  1  0  0  0  0
 41 56  1  0  0  0  0
 42 57  1  0  0  0  0
M  END
> <PUBCHEM_COMPOUND_CID>
101747814

> <PUBCHEM_COMPOUND_CANONICALIZED>
1

> <PUBCHEM_CACTVS_COMPLEXITY>
1230

> <PUBCHEM_CACTVS_HBOND_ACCEPTOR>
15

> <PUBCHEM_CACTVS_HBOND_DONOR>
0

> <PUBCHEM_CACTVS_ROTATABLE_BOND>
0

> <PUBCHEM_CACTVS_SUBSKEYS>
AAADccB/+AAAAAAAAAAAAAAAAAAAAAAAAAA8eLECAAAAAAAB/gAAHgAAAAAADASBmgAwhpIIFEC4BqFyVACiiCAtICAAmCEmTNgMp/bMtZuOOWjl5DXI6Y+YfwxsAAAACAAAAAAAAAAQAAAAAAAAAAAAAA==

> <PUBCHEM_IUPAC_OPENEYE_NAME>
4,10,16,22,25,31-hexaoxa-32,34,36-triazaheptacyclo[11.11.7.13,23.15,9.111,15.117,21.126,30]hexatriaconta-1(24),2,5,7,9(36),11,13,15(35),17(34),18,20,23(33),26,28,30(32)-pentadecaene-6,8,18,20,27,29-hexacarbonitrile

> <PUBCHEM_IUPAC_CAS_NAME>
4,10,16,22,25,31-hexaoxa-32,34,36-triazaheptacyclo[11.11.7.13,23.15,9.111,15.117,21.126,30]hexatriaconta-1(24),2,5,7,9(36),11,13,15(35),17(34),18,20,23(33),26,28,30(32)-pentadecaene-6,8,18,20,27,29-hexacarbonitrile

> <PUBCHEM_IUPAC_NAME_MARKUP>
4,10,16,22,25,31-hexaoxa-32,34,36-triazaheptacyclo[11.11.7.1<SUP>3,23</SUP>.1<SUP>5,9</SUP>.1<SUP>11,15</SUP>.1<SUP>17,21</SUP>.1<SUP>26,30</SUP>]hexatriaconta-1(24),2,5,7,9(36),11,13,15(35),17(34),18,20,23(33),26,28,30(32)-pentadecaene-6,8,18,20,27,29-hexacarbonitrile

> <PUBCHEM_IUPAC_NAME>
4,10,16,22,25,31-hexaoxa-32,34,36-triazaheptacyclo[11.11.7.13,23.15,9.111,15.117,21.126,30]hexatriaconta-1(24),2,5,7,9(36),11,13,15(35),17(34),18,20,23(33),26,28,30(32)-pentadecaene-6,8,18,20,27,29-hexacarbonitrile

> <PUBCHEM_IUPAC_SYSTEMATIC_NAME>
4,10,16,22,25,31-hexaoxa-32,34,36-triazaheptacyclo[11.11.7.13,23.15,9.111,15.117,21.126,30]hexatriaconta-1(24),2,5,7,9(36),11,13,15(35),17(34),18,20,23(33),26,28,30(32)-pentadecaene-6,8,18,20,27,29-hexacarbonitrile

> <PUBCHEM_IUPAC_TRADITIONAL_NAME>
4,10,16,22,25,31-hexaoxa-32,34,36-triazaheptacyclo[11.11.7.13,23.15,9.111,15.117,21.126,30]hexatriaconta-1(24),2,5,7,9(36),11,13,15(35),17(34),18,20,23(33),26,28,30(32)-pentadecaene-6,8,18,20,27,29-hexacarbonitrile

> <PUBCHEM_IUPAC_INCHI>
InChI=1S/C33H9N9O6/c34-10-16-1-17(11-35)29-40-28(16)43-22-4-24-8-26(6-22)47-32-20(14-38)3-21(15-39)33(42-32)48-27-7-23(44-29)5-25(9-27)46-31-19(13-37)2-18(12-36)30(41-31)45-24/h1-9H

> <PUBCHEM_IUPAC_INCHIKEY>
NECXOAAPBAVUDP-UHFFFAOYSA-N

> <PUBCHEM_XLOGP3_AA>
4.4

> <PUBCHEM_EXACT_MASS>
627.06757904

> <PUBCHEM_MOLECULAR_FORMULA>
C33H9N9O6

> <PUBCHEM_MOLECULAR_WEIGHT>
627.5

> <PUBCHEM_SMILES>
C1=C2C=C3C=C1OC4=C(C=C(C(=N4)OC5=CC(=CC(=C5)OC6=NC(=C(C=C6C#N)C#N)O2)OC7=NC(=C(C=C7C#N)C#N)O3)C#N)C#N

> <PUBCHEM_CONNECTIVITY_SMILES>
C1=C2C=C3C=C1OC4=C(C=C(C(=N4)OC5=CC(=CC(=C5)OC6=NC(=C(C=C6C#N)C#N)O2)OC7=NC(=C(C=C7C#N)C#N)O3)C#N)C#N

> <PUBCHEM_CACTVS_TPSA>
260

> <PUBCHEM_MONOISOTOPIC_WEIGHT>
627.06757904

> <PUBCHEM_TOTAL_CHARGE>
0

> <PUBCHEM_HEAVY_ATOM_COUNT>
48

> <PUBCHEM_ATOM_DEF_STEREO_COUNT>
0

> <PUBCHEM_ATOM_UDEF_STEREO_COUNT>
0

> <PUBCHEM_BOND_DEF_STEREO_COUNT>
0

> <PUBCHEM_BOND_UDEF_STEREO_COUNT>
0

> <PUBCHEM_ISOTOPIC_ATOM_COUNT>
0

> <PUBCHEM_COMPONENT_COUNT>
1

> <PUBCHEM_CACTVS_TAUTO_COUNT>
-1

> <PUBCHEM_COORDINATE_TYPE>
1
5
255

> <PUBCHEM_BONDANNOTATIONS>
1  16  8
1  28  8
16  22  8
16  23  8
17  22  8
17  24  8
18  23  8
18  24  8
19  25  8
19  26  8
2  17  8
2  29  8
20  25  8
20  27  8
21  26  8
21  27  8
28  34  8
29  35  8
3  18  8
3  30  8
30  36  8
31  37  8
32  38  8
33  39  8
34  40  8
35  41  8
36  42  8
37  40  8
38  41  8
39  42  8
4  19  8
4  31  8
5  20  8
5  32  8
6  21  8
6  33  8
7  28  8
7  31  8
8  29  8
8  32  8
9  30  8
9  33  8

$$$$
