102111051
  -OEChem-09082500162D

 80 88  0     0  0  0  0  0  0999 V2000
    8.9909   -2.8565    0.0000 C   0  0  0  0  0  0  0  0  0  0  0  0
    9.6631   -2.0035    0.0000 C   0  0  0  0  0  0  0  0  0  0  0  0
    8.9909    2.8565    0.0000 C   0  0  0  0  0  0  0  0  0  0  0  0
    9.6631    2.0035    0.0000 C   0  0  0  0  0  0  0  0  0  0  0  0
    3.1800   -2.5144    0.0000 C   0  0  0  0  0  0  0  0  0  0  0  0
    3.9776   -3.2516    0.0000 C   0  0  0  0  0  0  0  0  0  0  0  0
    3.1800    2.5144    0.0000 C   0  0  0  0  0  0  0  0  0  0  0  0
    3.9776    3.2516    0.0000 C   0  0  0  0  0  0  0  0  0  0  0  0
    8.1123   -3.4951    0.0000 C   0  0  0  0  0  0  0  0  0  0  0  0
   10.0786   -1.0000    0.0000 C   0  0  0  0  0  0  0  0  0  0  0  0
    8.1123    3.4951    0.0000 C   0  0  0  0  0  0  0  0  0  0  0  0
   10.0786    1.0000    0.0000 C   0  0  0  0  0  0  0  0  0  0  0  0
    2.6125   -1.5884    0.0000 C   0  0  0  0  0  0  0  0  0  0  0  0
    4.9453   -3.7446    0.0000 C   0  0  0  0  0  0  0  0  0  0  0  0
    2.6125    1.5884    0.0000 C   0  0  0  0  0  0  0  0  0  0  0  0
    4.9453    3.7446    0.0000 C   0  0  0  0  0  0  0  0  0  0  0  0
    7.0933   -3.8711    0.0000 C   0  0  0  0  0  0  0  0  0  0  0  0
    6.0106   -3.9564    0.0000 C   0  0  0  0  0  0  0  0  0  0  0  0
    2.3176    0.5431    0.0000 C   0  0  0  0  0  0  0  0  0  0  0  0
    7.0933    3.8711    0.0000 C   0  0  0  0  0  0  0  0  0  0  0  0
    2.3176   -0.5431    0.0000 C   0  0  0  0  0  0  0  0  0  0  0  0
    9.2126   -0.5000    0.0000 C   0  0  0  0  0  0  0  0  0  0  0  0
    6.0106    3.9564    0.0000 C   0  0  0  0  0  0  0  0  0  0  0  0
    9.2126    0.5000    0.0000 C   0  0  0  0  0  0  0  0  0  0  0  0
    7.0539   -3.5414    0.0000 C   0  0  0  0  0  0  0  0  0  0  0  0
    5.9979   -3.6246    0.0000 C   0  0  0  0  0  0  0  0  0  0  0  0
    2.6494    0.5297    0.0000 C   0  0  0  0  0  0  0  0  0  0  0  0
    7.0539    3.5414    0.0000 C   0  0  0  0  0  0  0  0  0  0  0  0
    2.6494   -0.5297    0.0000 C   0  0  0  0  0  0  0  0  0  0  0  0
   10.9446   -0.5000    0.0000 C   0  0  0  0  0  0  0  0  0  0  0  0
    5.9979    3.6246    0.0000 C   0  0  0  0  0  0  0  0  0  0  0  0
   10.9446    0.5000    0.0000 C   0  0  0  0  0  0  0  0  0  0  0  0
    9.3924   -3.7949    0.0000 C   0  0  0  0  0  0  0  0  0  0  0  0
   10.6694   -2.1746    0.0000 C   0  0  0  0  0  0  0  0  0  0  0  0
    9.3924    3.7949    0.0000 C   0  0  0  0  0  0  0  0  0  0  0  0
   10.6694    2.1746    0.0000 C   0  0  0  0  0  0  0  0  0  0  0  0
    2.2130   -2.8410    0.0000 C   0  0  0  0  0  0  0  0  0  0  0  0
    3.7280   -4.2413    0.0000 C   0  0  0  0  0  0  0  0  0  0  0  0
    2.2130    2.8410    0.0000 C   0  0  0  0  0  0  0  0  0  0  0  0
    3.7280    4.2413    0.0000 C   0  0  0  0  0  0  0  0  0  0  0  0
   10.4043   -3.9288    0.0000 C   0  0  0  0  0  0  0  0  0  0  0  0
   11.0361   -3.1271    0.0000 C   0  0  0  0  0  0  0  0  0  0  0  0
   11.0361    3.1271    0.0000 C   0  0  0  0  0  0  0  0  0  0  0  0
    2.7496   -4.5320    0.0000 C   0  0  0  0  0  0  0  0  0  0  0  0
    2.0000   -3.8392    0.0000 C   0  0  0  0  0  0  0  0  0  0  0  0
   10.4043    3.9288    0.0000 C   0  0  0  0  0  0  0  0  0  0  0  0
    2.0000    3.8392    0.0000 C   0  0  0  0  0  0  0  0  0  0  0  0
    2.7496    4.5320    0.0000 C   0  0  0  0  0  0  0  0  0  0  0  0
    7.2263   -4.4767    0.0000 H   0  0  0  0  0  0  0  0  0  0  0  0
    1.7035    0.6280    0.0000 H   0  0  0  0  0  0  0  0  0  0  0  0
    7.2263    4.4767    0.0000 H   0  0  0  0  0  0  0  0  0  0  0  0
    1.7035   -0.6280    0.0000 H   0  0  0  0  0  0  0  0  0  0  0  0
    5.9741    4.5754    0.0000 H   0  0  0  0  0  0  0  0  0  0  0  0
    5.9741   -4.5754    0.0000 H   0  0  0  0  0  0  0  0  0  0  0  0
    8.6756    0.8100    0.0000 H   0  0  0  0  0  0  0  0  0  0  0  0
    8.6756   -0.8100    0.0000 H   0  0  0  0  0  0  0  0  0  0  0  0
    7.0160   -2.9225    0.0000 H   0  0  0  0  0  0  0  0  0  0  0  0
    3.2693    0.5405    0.0000 H   0  0  0  0  0  0  0  0  0  0  0  0
    7.0160    2.9225    0.0000 H   0  0  0  0  0  0  0  0  0  0  0  0
    3.2693   -0.5405    0.0000 H   0  0  0  0  0  0  0  0  0  0  0  0
    5.9384    3.0075    0.0000 H   0  0  0  0  0  0  0  0  0  0  0  0
    5.9384   -3.0075    0.0000 H   0  0  0  0  0  0  0  0  0  0  0  0
   11.4815    0.8100    0.0000 H   0  0  0  0  0  0  0  0  0  0  0  0
   11.4815   -0.8100    0.0000 H   0  0  0  0  0  0  0  0  0  0  0  0
    9.0177   -4.2889    0.0000 H   0  0  0  0  0  0  0  0  0  0  0  0
   11.0620   -1.6948    0.0000 H   0  0  0  0  0  0  0  0  0  0  0  0
    9.0177    4.2889    0.0000 H   0  0  0  0  0  0  0  0  0  0  0  0
   11.0620    1.6948    0.0000 H   0  0  0  0  0  0  0  0  0  0  0  0
    1.7500   -2.4286    0.0000 H   0  0  0  0  0  0  0  0  0  0  0  0
    4.1754   -4.6705    0.0000 H   0  0  0  0  0  0  0  0  0  0  0  0
    1.7500    2.4286    0.0000 H   0  0  0  0  0  0  0  0  0  0  0  0
    4.1754    4.6705    0.0000 H   0  0  0  0  0  0  0  0  0  0  0  0
   10.6376   -4.5032    0.0000 H   0  0  0  0  0  0  0  0  0  0  0  0
   11.6491   -3.2198    0.0000 H   0  0  0  0  0  0  0  0  0  0  0  0
   11.6491    3.2198    0.0000 H   0  0  0  0  0  0  0  0  0  0  0  0
    2.6090   -5.1359    0.0000 H   0  0  0  0  0  0  0  0  0  0  0  0
    1.4090   -4.0268    0.0000 H   0  0  0  0  0  0  0  0  0  0  0  0
   10.6376    4.5032    0.0000 H   0  0  0  0  0  0  0  0  0  0  0  0
    1.4090    4.0268    0.0000 H   0  0  0  0  0  0  0  0  0  0  0  0
    2.6090    5.1359    0.0000 H   0  0  0  0  0  0  0  0  0  0  0  0
  1  2  1  0  0  0  0
  1  9  1  0  0  0  0
  1 33  2  0  0  0  0
  2 10  1  0  0  0  0
  2 34  2  0  0  0  0
  3  4  1  0  0  0  0
  3 11  1  0  0  0  0
  3 35  2  0  0  0  0
  4 12  1  0  0  0  0
  4 36  2  0  0  0  0
  5  6  1  0  0  0  0
  5 13  1  0  0  0  0
  5 37  2  0  0  0  0
  6 14  1  0  0  0  0
  6 38  2  0  0  0  0
  7  8  1  0  0  0  0
  7 15  1  0  0  0  0
  7 39  2  0  0  0  0
  8 16  1  0  0  0  0
  8 40  2  0  0  0  0
  9 17  2  0  0  0  0
  9 25  1  0  0  0  0
 10 22  2  0  0  0  0
 10 30  1  0  0  0  0
 11 20  2  0  0  0  0
 11 28  1  0  0  0  0
 12 24  2  0  0  0  0
 12 32  1  0  0  0  0
 13 21  2  0  0  0  0
 13 29  1  0  0  0  0
 14 18  2  0  0  0  0
 14 26  1  0  0  0  0
 15 19  2  0  0  0  0
 15 27  1  0  0  0  0
 16 23  2  0  0  0  0
 16 31  1  0  0  0  0
 17 18  1  0  0  0  0
 17 49  1  0  0  0  0
 18 54  1  0  0  0  0
 19 21  1  0  0  0  0
 19 50  1  0  0  0  0
 20 23  1  0  0  0  0
 20 51  1  0  0  0  0
 21 52  1  0  0  0  0
 22 24  1  0  0  0  0
 22 56  1  0  0  0  0
 23 53  1  0  0  0  0
 24 55  1  0  0  0  0
 25 26  2  0  0  0  0
 25 57  1  0  0  0  0
 26 62  1  0  0  0  0
 27 29  2  0  0  0  0
 27 58  1  0  0  0  0
 28 31  2  0  0  0  0
 28 59  1  0  0  0  0
 29 60  1  0  0  0  0
 30 32  2  0  0  0  0
 30 64  1  0  0  0  0
 31 61  1  0  0  0  0
 32 63  1  0  0  0  0
 33 41  1  0  0  0  0
 33 65  1  0  0  0  0
 34 42  1  0  0  0  0
 34 66  1  0  0  0  0
 35 46  1  0  0  0  0
 35 67  1  0  0  0  0
 36 43  1  0  0  0  0
 36 68  1  0  0  0  0
 37 45  1  0  0  0  0
 37 69  1  0  0  0  0
 38 44  1  0  0  0  0
 38 70  1  0  0  0  0
 39 47  1  0  0  0  0
 39 71  1  0  0  0  0
 40 48  1  0  0  0  0
 40 72  1  0  0  0  0
 41 42  2  0  0  0  0
 41 73  1  0  0  0  0
 42 74  1  0  0  0  0
 43 46  2  0  0  0  0
 43 75  1  0  0  0  0
 44 45  2  0  0  0  0
 44 76  1  0  0  0  0
 45 77  1  0  0  0  0
 46 78  1  0  0  0  0
 47 48  2  0  0  0  0
 47 79  1  0  0  0  0
 48 80  1  0  0  0  0
M  END
> <PUBCHEM_COMPOUND_CID>
102111051

> <PUBCHEM_COMPOUND_CANONICALIZED>
1

> <PUBCHEM_CACTVS_COMPLEXITY>
740

> <PUBCHEM_CACTVS_HBOND_ACCEPTOR>
0

> <PUBCHEM_CACTVS_HBOND_DONOR>
0

> <PUBCHEM_CACTVS_ROTATABLE_BOND>
0

> <PUBCHEM_CACTVS_SUBSKEYS>
AAADcfB8AAAAAAAAAAAAAAAAAAAAAAAAAAAwYMGDAAAAAAABVAAAGAAAAAAADACAGAAwAIAAAACAAiBCAAACAAAgAAAIiAAAAIgIICKAERCAIAAggAAIiAcAgMAOwAAAAAAQAACAAAAAACAAAAAAAAAAAA==

> <PUBCHEM_IUPAC_OPENEYE_NAME>
nonacyclo[36.2.2.28,11.218,21.228,31.02,7.012,17.022,27.032,37]octatetraconta-1(40),2,4,6,8(48),9,11(47),12,14,16,18(46),19,21(45),22,24,26,28,30,32,34,36,38,41,43-tetracosaene

> <PUBCHEM_IUPAC_CAS_NAME>
nonacyclo[36.2.2.28,11.218,21.228,31.02,7.012,17.022,27.032,37]octatetraconta-1(40),2,4,6,8(48),9,11(47),12,14,16,18(46),19,21(45),22,24,26,28,30,32,34,36,38,41,43-tetracosaene

> <PUBCHEM_IUPAC_NAME_MARKUP>
nonacyclo[36.2.2.2<SUP>8,11</SUP>.2<SUP>18,21</SUP>.2<SUP>28,31</SUP>.0<SUP>2,7</SUP>.0<SUP>12,17</SUP>.0<SUP>22,27</SUP>.0<SUP>32,37</SUP>]octatetraconta-1(40),2,4,6,8(48),9,11(47),12,14,16,18(46),19,21(45),22,24,26,28,30,32,34,36,38,41,43-tetracosaene

> <PUBCHEM_IUPAC_NAME>
nonacyclo[36.2.2.28,11.218,21.228,31.02,7.012,17.022,27.032,37]octatetraconta-1(40),2,4,6,8(48),9,11(47),12,14,16,18(46),19,21(45),22,24,26,28,30,32,34,36,38,41,43-tetracosaene

> <PUBCHEM_IUPAC_SYSTEMATIC_NAME>
nonacyclo[36.2.2.28,11.218,21.228,31.02,7.012,17.022,27.032,37]octatetraconta-1(40),2,4,6,8(48),9,11(47),12,14,16,18(46),19,21(45),22,24,26,28,30,32,34,36,38,41,43-tetracosaene

> <PUBCHEM_IUPAC_TRADITIONAL_NAME>
nonacyclo[36.2.2.28,11.218,21.228,31.02,7.012,17.022,27.032,37]octatetraconta-1(40),2,4,6,8(48),9,11(47),12,14,16,18(46),19,21(45),22,24,26,28,30,32,34,36,38,41,43-tetracosaene

> <PUBCHEM_IUPAC_INCHI>
InChI=1S/C48H32/c1-2-10-42-34-21-23-36(24-22-34)44-12-5-6-14-46(44)38-29-31-40(32-30-38)48-16-8-7-15-47(48)39-27-25-37(26-28-39)45-13-4-3-11-43(45)35-19-17-33(18-20-35)41(42)9-1/h1-32H

> <PUBCHEM_IUPAC_INCHIKEY>
GMUZVDGDVSPNHQ-UHFFFAOYSA-N

> <PUBCHEM_XLOGP3_AA>
13

> <PUBCHEM_EXACT_MASS>
608.250401021

> <PUBCHEM_MOLECULAR_FORMULA>
C48H32

> <PUBCHEM_MOLECULAR_WEIGHT>
608.8

> <PUBCHEM_SMILES>
C1=CC=C2C3=CC=C(C=C3)C4=CC=CC=C4C5=CC=C(C=C5)C6=CC=CC=C6C7=CC=C(C=C7)C8=CC=CC=C8C9=CC=C(C2=C1)C=C9

> <PUBCHEM_CONNECTIVITY_SMILES>
C1=CC=C2C3=CC=C(C=C3)C4=CC=CC=C4C5=CC=C(C=C5)C6=CC=CC=C6C7=CC=C(C=C7)C8=CC=CC=C8C9=CC=C(C2=C1)C=C9

> <PUBCHEM_CACTVS_TPSA>
0

> <PUBCHEM_MONOISOTOPIC_WEIGHT>
608.250401021

> <PUBCHEM_TOTAL_CHARGE>
0

> <PUBCHEM_HEAVY_ATOM_COUNT>
48

> <PUBCHEM_ATOM_DEF_STEREO_COUNT>
0

> <PUBCHEM_ATOM_UDEF_STEREO_COUNT>
0

> <PUBCHEM_BOND_DEF_STEREO_COUNT>
0

> <PUBCHEM_BOND_UDEF_STEREO_COUNT>
0

> <PUBCHEM_ISOTOPIC_ATOM_COUNT>
0

> <PUBCHEM_COMPONENT_COUNT>
1

> <PUBCHEM_CACTVS_TAUTO_COUNT>
-1

> <PUBCHEM_COORDINATE_TYPE>
1
5
255

> <PUBCHEM_BONDANNOTATIONS>
1  2  8
1  33  8
10  22  8
10  30  8
11  20  8
11  28  8
12  24  8
12  32  8
13  21  8
13  29  8
14  18  8
14  26  8
15  19  8
15  27  8
16  23  8
16  31  8
17  18  8
19  21  8
2  34  8
20  23  8
22  24  8
25  26  8
27  29  8
28  31  8
3  35  8
3  4  8
30  32  8
33  41  8
34  42  8
35  46  8
36  43  8
37  45  8
38  44  8
39  47  8
4  36  8
40  48  8
41  42  8
43  46  8
44  45  8
47  48  8
5  37  8
5  6  8
6  38  8
7  39  8
7  8  8
8  40  8
9  17  8
9  25  8

$$$$
