102113300
  -OEChem-09082500172D

 84 91  0     1  0  0  0  0  0999 V2000
    5.3406   -1.4495    0.0000 N   0  0  0  0  0  0  0  0  0  0  0  0
    7.4046    0.1254    0.0000 C   0  0  3  0  0  0  0  0  0  0  0  0
    6.5386   -0.3746    0.0000 C   0  0  3  0  0  0  0  0  0  0  0  0
    7.4046    1.1254    0.0000 C   0  0  3  0  0  0  0  0  0  0  0  0
    6.4252    0.2290    0.0000 C   0  0  0  0  0  0  0  0  0  0  0  0
    8.2706    0.6254    0.0000 C   0  0  0  0  0  0  0  0  0  0  0  0
    5.6725    0.1254    0.0000 C   0  0  0  0  0  0  0  0  0  0  0  0
    6.8252    0.9218    0.0000 C   0  0  0  0  0  0  0  0  0  0  0  0
    6.3294   -1.3464    0.0000 C   0  0  0  0  0  0  0  0  0  0  0  0
    8.3240   -0.2763    0.0000 C   0  0  0  0  0  0  0  0  0  0  0  0
    6.5386    1.6254    0.0000 C   0  0  0  0  0  0  0  0  0  0  0  0
    5.6725    1.1254    0.0000 C   0  0  0  0  0  0  0  0  0  0  0  0
    4.9355   -0.5417    0.0000 C   0  0  0  0  0  0  0  0  0  0  0  0
    6.9916   -2.1002    0.0000 C   0  0  0  0  0  0  0  0  0  0  0  0
    8.7706    1.4914    0.0000 C   0  0  0  0  0  0  0  0  0  0  0  0
    9.1366    0.1254    0.0000 C   0  0  0  0  0  0  0  0  0  0  0  0
    5.7180   -0.4781    0.0000 C   0  0  0  0  0  0  0  0  0  0  0  0
    7.0840    1.8877    0.0000 C   0  0  0  0  0  0  0  0  0  0  0  0
    8.5858   -1.2449    0.0000 C   0  0  0  0  0  0  0  0  0  0  0  0
    7.9939   -2.0551    0.0000 C   0  0  0  0  0  0  0  0  0  0  0  0
    5.0298    1.8914    0.0000 C   0  0  0  0  0  0  0  0  0  0  0  0
    6.5999   -3.0203    0.0000 C   0  0  0  0  0  0  0  0  0  0  0  0
    3.9570   -0.3355    0.0000 C   0  0  0  0  0  0  0  0  0  0  0  0
    5.9766   -1.4440    0.0000 C   0  0  0  0  0  0  0  0  0  0  0  0
    4.7521   -0.2191    0.0000 C   0  0  0  0  0  0  0  0  0  0  0  0
    8.0499    2.1465    0.0000 C   0  0  0  0  0  0  0  0  0  0  0  0
    6.3769    2.5948    0.0000 C   0  0  0  0  0  0  0  0  0  0  0  0
    7.2008   -3.8196    0.0000 C   0  0  0  0  0  0  0  0  0  0  0  0
    5.6072   -3.1411    0.0000 C   0  0  0  0  0  0  0  0  0  0  0  0
    4.0450    1.7179    0.0000 C   0  0  0  0  0  0  0  0  0  0  0  0
    5.3718    2.8311    0.0000 C   0  0  0  0  0  0  0  0  0  0  0  0
    3.6464    0.6150    0.0000 C   0  0  0  0  0  0  0  0  0  0  0  0
    3.2892   -1.0798    0.0000 C   0  0  0  0  0  0  0  0  0  0  0  0
    5.2694   -2.1510    0.0000 C   0  0  0  0  0  0  0  0  0  0  0  0
    4.0449   -0.9261    0.0000 C   0  0  0  0  0  0  0  0  0  0  0  0
    8.3087    3.1125    0.0000 C   0  0  0  0  0  0  0  0  0  0  0  0
    6.6357    3.5608    0.0000 C   0  0  0  0  0  0  0  0  0  0  0  0
    4.3036   -1.8921    0.0000 C   0  0  0  0  0  0  0  0  0  0  0  0
    7.6016    3.8196    0.0000 C   0  0  0  0  0  0  0  0  0  0  0  0
    3.4022    2.4838    0.0000 C   0  0  0  0  0  0  0  0  0  0  0  0
    4.7290    3.5972    0.0000 C   0  0  0  0  0  0  0  0  0  0  0  0
    2.6678    0.8213    0.0000 C   0  0  0  0  0  0  0  0  0  0  0  0
    2.3107   -0.8736    0.0000 C   0  0  0  0  0  0  0  0  0  0  0  0
    3.7442    3.4235    0.0000 C   0  0  0  0  0  0  0  0  0  0  0  0
    2.0000    0.0770    0.0000 C   0  0  0  0  0  0  0  0  0  0  0  0
    7.9415    1.4354    0.0000 H   0  0  0  0  0  0  0  0  0  0  0  0
    7.8322    1.0638    0.0000 H   0  0  0  0  0  0  0  0  0  0  0  0
    8.7936    0.1285    0.0000 H   0  0  0  0  0  0  0  0  0  0  0  0
    6.5386    2.2454    0.0000 H   0  0  0  0  0  0  0  0  0  0  0  0
    9.3076    1.1814    0.0000 H   0  0  0  0  0  0  0  0  0  0  0  0
    9.0806    2.0283    0.0000 H   0  0  0  0  0  0  0  0  0  0  0  0
    8.2337    1.8014    0.0000 H   0  0  0  0  0  0  0  0  0  0  0  0
    8.8266   -0.4116    0.0000 H   0  0  0  0  0  0  0  0  0  0  0  0
    9.6736   -0.1846    0.0000 H   0  0  0  0  0  0  0  0  0  0  0  0
    9.4466    0.6623    0.0000 H   0  0  0  0  0  0  0  0  0  0  0  0
    9.1954   -1.3580    0.0000 H   0  0  0  0  0  0  0  0  0  0  0  0
    8.2870   -2.6014    0.0000 H   0  0  0  0  0  0  0  0  0  0  0  0
    6.3570   -3.5907    0.0000 H   0  0  0  0  0  0  0  0  0  0  0  0
    6.5755   -1.6046    0.0000 H   0  0  0  0  0  0  0  0  0  0  0  0
    4.5917    0.3798    0.0000 H   0  0  0  0  0  0  0  0  0  0  0  0
    8.4883    1.7081    0.0000 H   0  0  0  0  0  0  0  0  0  0  0  0
    5.7780    2.4344    0.0000 H   0  0  0  0  0  0  0  0  0  0  0  0
    6.7053   -4.1922    0.0000 H   0  0  0  0  0  0  0  0  0  0  0  0
    7.5734   -4.3151    0.0000 H   0  0  0  0  0  0  0  0  0  0  0  0
    7.6964   -3.4470    0.0000 H   0  0  0  0  0  0  0  0  0  0  0  0
    5.5323   -2.5256    0.0000 H   0  0  0  0  0  0  0  0  0  0  0  0
    4.9917   -3.2160    0.0000 H   0  0  0  0  0  0  0  0  0  0  0  0
    5.6821   -3.7566    0.0000 H   0  0  0  0  0  0  0  0  0  0  0  0
    3.8329    1.1353    0.0000 H   0  0  0  0  0  0  0  0  0  0  0  0
    5.9824    2.9388    0.0000 H   0  0  0  0  0  0  0  0  0  0  0  0
    4.0604    1.0765    0.0000 H   0  0  0  0  0  0  0  0  0  0  0  0
    3.4818   -1.6691    0.0000 H   0  0  0  0  0  0  0  0  0  0  0  0
    5.4298   -2.7499    0.0000 H   0  0  0  0  0  0  0  0  0  0  0  0
    3.4460   -0.7656    0.0000 H   0  0  0  0  0  0  0  0  0  0  0  0
    8.9076    3.2729    0.0000 H   0  0  0  0  0  0  0  0  0  0  0  0
    6.1973    3.9992    0.0000 H   0  0  0  0  0  0  0  0  0  0  0  0
    3.8651   -2.3305    0.0000 H   0  0  0  0  0  0  0  0  0  0  0  0
    7.7621    4.4184    0.0000 H   0  0  0  0  0  0  0  0  0  0  0  0
    2.7916    2.3761    0.0000 H   0  0  0  0  0  0  0  0  0  0  0  0
    4.9410    4.1798    0.0000 H   0  0  0  0  0  0  0  0  0  0  0  0
    2.4752    1.4106    0.0000 H   0  0  0  0  0  0  0  0  0  0  0  0
    1.8966   -1.3350    0.0000 H   0  0  0  0  0  0  0  0  0  0  0  0
    3.3456    3.8985    0.0000 H   0  0  0  0  0  0  0  0  0  0  0  0
    1.3933    0.2048    0.0000 H   0  0  0  0  0  0  0  0  0  0  0  0
  1  9  2  0  0  0  0
  1 13  1  0  0  0  0
  2  3  1  0  0  0  0
  2  4  1  0  0  0  0
  2  6  1  0  0  0  0
  2 10  1  0  0  0  0
  3  5  1  0  0  0  0
  3  7  1  0  0  0  0
  3  9  1  0  0  0  0
  4  8  1  0  0  0  0
  4 11  1  0  0  0  0
  4 46  1  0  0  0  0
  5  8  2  0  0  0  0
  5 17  1  0  0  0  0
  6 15  1  0  0  0  0
  6 16  1  0  0  0  0
  6 47  1  0  0  0  0
  7 12  1  0  0  0  0
  7 13  2  0  0  0  0
  8 18  1  0  0  0  0
  9 14  1  0  0  0  0
 10 19  2  0  0  0  0
 10 48  1  0  0  0  0
 11 12  2  0  0  0  0
 11 49  1  0  0  0  0
 12 21  1  0  0  0  0
 13 23  1  0  0  0  0
 14 20  2  0  0  0  0
 14 22  1  0  0  0  0
 15 50  1  0  0  0  0
 15 51  1  0  0  0  0
 15 52  1  0  0  0  0
 16 53  1  0  0  0  0
 16 54  1  0  0  0  0
 16 55  1  0  0  0  0
 17 24  2  0  0  0  0
 17 25  1  0  0  0  0
 18 26  2  0  0  0  0
 18 27  1  0  0  0  0
 19 20  1  0  0  0  0
 19 56  1  0  0  0  0
 20 57  1  0  0  0  0
 21 30  2  0  0  0  0
 21 31  1  0  0  0  0
 22 28  1  0  0  0  0
 22 29  1  0  0  0  0
 22 58  1  0  0  0  0
 23 32  2  0  0  0  0
 23 33  1  0  0  0  0
 24 34  1  0  0  0  0
 24 59  1  0  0  0  0
 25 35  2  0  0  0  0
 25 60  1  0  0  0  0
 26 36  1  0  0  0  0
 26 61  1  0  0  0  0
 27 37  2  0  0  0  0
 27 62  1  0  0  0  0
 28 63  1  0  0  0  0
 28 64  1  0  0  0  0
 28 65  1  0  0  0  0
 29 66  1  0  0  0  0
 29 67  1  0  0  0  0
 29 68  1  0  0  0  0
 30 40  1  0  0  0  0
 30 69  1  0  0  0  0
 31 41  2  0  0  0  0
 31 70  1  0  0  0  0
 32 42  1  0  0  0  0
 32 71  1  0  0  0  0
 33 43  2  0  0  0  0
 33 72  1  0  0  0  0
 34 38  2  0  0  0  0
 34 73  1  0  0  0  0
 35 38  1  0  0  0  0
 35 74  1  0  0  0  0
 36 39  2  0  0  0  0
 36 75  1  0  0  0  0
 37 39  1  0  0  0  0
 37 76  1  0  0  0  0
 38 77  1  0  0  0  0
 39 78  1  0  0  0  0
 40 44  2  0  0  0  0
 40 79  1  0  0  0  0
 41 44  1  0  0  0  0
 41 80  1  0  0  0  0
 42 45  2  0  0  0  0
 42 81  1  0  0  0  0
 43 45  1  0  0  0  0
 43 82  1  0  0  0  0
 44 83  1  0  0  0  0
 45 84  1  0  0  0  0
M  END
> <PUBCHEM_COMPOUND_CID>
102113300

> <PUBCHEM_COMPOUND_CANONICALIZED>
1

> <PUBCHEM_CACTVS_COMPLEXITY>
1330

> <PUBCHEM_CACTVS_HBOND_ACCEPTOR>
1

> <PUBCHEM_CACTVS_HBOND_DONOR>
0

> <PUBCHEM_CACTVS_ROTATABLE_BOND>
6

> <PUBCHEM_CACTVS_SUBSKEYS>
AAADcfB+AAAAAAAAAAAAAAAAAAAAAQIAAAAwYMGCBAgAAECBVAAAHAAAAAAADwiBGAAyAIIAAACgAyRiRACCAAAgAAAIiAAgBJgIICKAkRGAIABggAAIiAcQgMAPgAAAAAAAAAAAAAAAAAAAAAAAAAAAAA==

> <PUBCHEM_IUPAC_OPENEYE_NAME>
2,6-diisopropyl-9,11,14,15-tetraphenyl-8-azatetracyclo[8.5.0.01,7.02,13]pentadeca-3,5,7,9,11,14-hexaene

> <PUBCHEM_IUPAC_CAS_NAME>
9,11,14,15-tetraphenyl-2,6-di(propan-2-yl)-8-azatetracyclo[8.5.0.01,7.02,13]pentadeca-3,5,7,9,11,14-hexaene

> <PUBCHEM_IUPAC_NAME_MARKUP>
9,11,14,15-tetraphenyl-2,6-di(propan-2-yl)-8-azatetracyclo[8.5.0.0<SUP>1,7</SUP>.0<SUP>2,13</SUP>]pentadeca-3,5,7,9,11,14-hexaene

> <PUBCHEM_IUPAC_NAME>
9,11,14,15-tetraphenyl-2,6-di(propan-2-yl)-8-azatetracyclo[8.5.0.01,7.02,13]pentadeca-3,5,7,9,11,14-hexaene

> <PUBCHEM_IUPAC_SYSTEMATIC_NAME>
9,11,14,15-tetraphenyl-2,6-di(propan-2-yl)-8-azatetracyclo[8.5.0.01,7.02,13]pentadeca-3,5,7,9,11,14-hexaene

> <PUBCHEM_IUPAC_TRADITIONAL_NAME>
2,6-diisopropyl-9,11,14,15-tetraphenyl-8-azatetracyclo[8.5.0.01,7.02,13]pentadeca-3,5,7,9,11,14-hexaene

> <PUBCHEM_IUPAC_INCHI>
InChI=1S/C44H39N/c1-29(2)35-26-17-27-43(30(3)4)37-28-36(31-18-9-5-10-19-31)40-41(34-24-15-8-16-25-34)45-42(35)44(40,43)39(33-22-13-7-14-23-33)38(37)32-20-11-6-12-21-32/h5-30,37H,1-4H3

> <PUBCHEM_IUPAC_INCHIKEY>
LVMLKOSJVGIOEA-UHFFFAOYSA-N

> <PUBCHEM_XLOGP3_AA>
9.6

> <PUBCHEM_EXACT_MASS>
581.308250248

> <PUBCHEM_MOLECULAR_FORMULA>
C44H39N

> <PUBCHEM_MOLECULAR_WEIGHT>
581.8

> <PUBCHEM_SMILES>
CC(C)C1=CC=CC2(C3C=C(C4=C(N=C1C42C(=C3C5=CC=CC=C5)C6=CC=CC=C6)C7=CC=CC=C7)C8=CC=CC=C8)C(C)C

> <PUBCHEM_CONNECTIVITY_SMILES>
CC(C)C1=CC=CC2(C3C=C(C4=C(N=C1C42C(=C3C5=CC=CC=C5)C6=CC=CC=C6)C7=CC=CC=C7)C8=CC=CC=C8)C(C)C

> <PUBCHEM_CACTVS_TPSA>
12.4

> <PUBCHEM_MONOISOTOPIC_WEIGHT>
581.308250248

> <PUBCHEM_TOTAL_CHARGE>
0

> <PUBCHEM_HEAVY_ATOM_COUNT>
45

> <PUBCHEM_ATOM_DEF_STEREO_COUNT>
0

> <PUBCHEM_ATOM_UDEF_STEREO_COUNT>
3

> <PUBCHEM_BOND_DEF_STEREO_COUNT>
0

> <PUBCHEM_BOND_UDEF_STEREO_COUNT>
0

> <PUBCHEM_ISOTOPIC_ATOM_COUNT>
0

> <PUBCHEM_COMPONENT_COUNT>
1

> <PUBCHEM_CACTVS_TAUTO_COUNT>
-1

> <PUBCHEM_COORDINATE_TYPE>
1
5
255

> <PUBCHEM_BONDANNOTATIONS>
17  24  8
17  25  8
18  26  8
18  27  8
2  6  3
21  30  8
21  31  8
23  32  8
23  33  8
24  34  8
25  35  8
26  36  8
27  37  8
3  5  3
30  40  8
31  41  8
32  42  8
33  43  8
34  38  8
35  38  8
36  39  8
37  39  8
4  11  3
40  44  8
41  44  8
42  45  8
43  45  8

$$$$
