10678053
  -OEChem-09082500182D

 90 94  0     0  0  0  0  0  0999 V2000
   18.5616   -8.9983    0.0000 O   0  0  0  0  0  0  0  0  0  0  0  0
   11.7451  -10.3059    0.0000 O   0  0  0  0  0  0  0  0  0  0  0  0
   16.4313   11.4855    0.0000 O   0  0  0  0  0  0  0  0  0  0  0  0
    6.1440    9.5120    0.0000 O   0  0  0  0  0  0  0  0  0  0  0  0
   23.0662   -4.3848    0.0000 O   0  0  0  0  0  0  0  0  0  0  0  0
    5.8530   -7.6869    0.0000 O   0  0  0  0  0  0  0  0  0  0  0  0
   21.7888    7.8977    0.0000 O   0  0  0  0  0  0  0  0  0  0  0  0
    2.4945    4.1963    0.0000 O   0  0  0  0  0  0  0  0  0  0  0  0
   24.2759    1.9487    0.0000 O   0  0  0  0  0  0  0  0  0  0  0  0
    2.3854   -2.2507    0.0000 O   0  0  0  0  0  0  0  0  0  0  0  0
   15.6970  -10.3610    0.0000 C   0  0  0  0  0  0  0  0  0  0  0  0
   14.8310   -9.8610    0.0000 C   0  0  0  0  0  0  0  0  0  0  0  0
   12.1212   11.9303    0.0000 C   0  0  0  0  0  0  0  0  0  0  0  0
    9.9834   11.5202    0.0000 C   0  0  0  0  0  0  0  0  0  0  0  0
   16.5630   -9.8610    0.0000 C   0  0  0  0  0  0  0  0  0  0  0  0
   13.9210  -10.3679    0.0000 C   0  0  0  0  0  0  0  0  0  0  0  0
   14.2980   11.9186    0.0000 C   0  0  0  0  0  0  0  0  0  0  0  0
    7.9655   10.7038    0.0000 C   0  0  0  0  0  0  0  0  0  0  0  0
   15.7131  -11.4025    0.0000 C   0  0  0  0  0  0  0  0  0  0  0  0
   14.8310   -8.8610    0.0000 C   0  0  0  0  0  0  0  0  0  0  0  0
   11.7626   10.4739    0.0000 C   0  0  0  0  0  0  0  0  0  0  0  0
   11.0666   11.5632    0.0000 C   0  0  0  0  0  0  0  0  0  0  0  0
   16.5630   -8.8610    0.0000 C   0  0  0  0  0  0  0  0  0  0  0  0
   13.9130  -11.4095    0.0000 C   0  0  0  0  0  0  0  0  0  0  0  0
   13.2252   11.7626    0.0000 C   0  0  0  0  0  0  0  0  0  0  0  0
    9.0575    9.6755    0.0000 C   0  0  0  0  0  0  0  0  0  0  0  0
   15.6970   -8.3610    0.0000 C   0  0  0  0  0  0  0  0  0  0  0  0
   14.8150  -11.9303    0.0000 C   0  0  0  0  0  0  0  0  0  0  0  0
   12.1477   11.6441    0.0000 C   0  0  0  0  0  0  0  0  0  0  0  0
   10.5546    9.5849    0.0000 C   0  0  0  0  0  0  0  0  0  0  0  0
   20.3552   -7.7648    0.0000 C   0  0  0  0  0  0  0  0  0  0  0  0
    9.6224   -9.8238    0.0000 C   0  0  0  0  0  0  0  0  0  0  0  0
   18.4403   10.6475    0.0000 C   0  0  0  0  0  0  0  0  0  0  0  0
    4.5877    7.9901    0.0000 C   0  0  0  0  0  0  0  0  0  0  0  0
   21.8759   -6.2073    0.0000 C   0  0  0  0  0  0  0  0  0  0  0  0
    7.6332   -8.9396    0.0000 C   0  0  0  0  0  0  0  0  0  0  0  0
   20.2490    9.4363    0.0000 C   0  0  0  0  0  0  0  0  0  0  0  0
    3.3556    6.1955    0.0000 C   0  0  0  0  0  0  0  0  0  0  0  0
   23.8809   -2.3662    0.0000 C   0  0  0  0  0  0  0  0  0  0  0  0
    4.3491   -6.1132    0.0000 C   0  0  0  0  0  0  0  0  0  0  0  0
   23.0015    6.0900    0.0000 C   0  0  0  0  0  0  0  0  0  0  0  0
    2.0368    2.0681    0.0000 C   0  0  0  0  0  0  0  0  0  0  0  0
   24.2893   -0.2281    0.0000 C   0  0  0  0  0  0  0  0  0  0  0  0
   23.8411    4.0816    0.0000 C   0  0  0  0  0  0  0  0  0  0  0  0
    3.1785   -4.2779    0.0000 C   0  0  0  0  0  0  0  0  0  0  0  0
    2.0000   -0.1083    0.0000 C   0  0  0  0  0  0  0  0  0  0  0  0
   16.2536  -11.7063    0.0000 H   0  0  0  0  0  0  0  0  0  0  0  0
   14.2941   -8.5510    0.0000 H   0  0  0  0  0  0  0  0  0  0  0  0
   12.2782   10.1295    0.0000 H   0  0  0  0  0  0  0  0  0  0  0  0
   11.1021   10.9442    0.0000 H   0  0  0  0  0  0  0  0  0  0  0  0
   17.1000   -8.5510    0.0000 H   0  0  0  0  0  0  0  0  0  0  0  0
   13.3748  -11.7174    0.0000 H   0  0  0  0  0  0  0  0  0  0  0  0
   13.3038   11.1476    0.0000 H   0  0  0  0  0  0  0  0  0  0  0  0
    8.8115    9.1064    0.0000 H   0  0  0  0  0  0  0  0  0  0  0  0
   15.6970   -7.7410    0.0000 H   0  0  0  0  0  0  0  0  0  0  0  0
   14.8174  -12.5503    0.0000 H   0  0  0  0  0  0  0  0  0  0  0  0
   12.2047   11.0267    0.0000 H   0  0  0  0  0  0  0  0  0  0  0  0
   10.7301    8.9903    0.0000 H   0  0  0  0  0  0  0  0  0  0  0  0
   20.4440   -8.3784    0.0000 H   0  0  0  0  0  0  0  0  0  0  0  0
   19.9558   -7.2906    0.0000 H   0  0  0  0  0  0  0  0  0  0  0  0
    9.1457  -10.2203    0.0000 H   0  0  0  0  0  0  0  0  0  0  0  0
    9.8179   -9.2354    0.0000 H   0  0  0  0  0  0  0  0  0  0  0  0
   18.9777   10.9567    0.0000 H   0  0  0  0  0  0  0  0  0  0  0  0
   18.1471   10.1013    0.0000 H   0  0  0  0  0  0  0  0  0  0  0  0
    4.3952    8.5794    0.0000 H   0  0  0  0  0  0  0  0  0  0  0  0
    5.0622    7.5911    0.0000 H   0  0  0  0  0  0  0  0  0  0  0  0
   22.0819   -6.7921    0.0000 H   0  0  0  0  0  0  0  0  0  0  0  0
   21.3922   -5.8194    0.0000 H   0  0  0  0  0  0  0  0  0  0  0  0
    7.0888   -9.2363    0.0000 H   0  0  0  0  0  0  0  0  0  0  0  0
    7.9390   -8.4002    0.0000 H   0  0  0  0  0  0  0  0  0  0  0  0
   20.8361    9.6355    0.0000 H   0  0  0  0  0  0  0  0  0  0  0  0
   19.8555    8.9571    0.0000 H   0  0  0  0  0  0  0  0  0  0  0  0
    3.0527    6.7364    0.0000 H   0  0  0  0  0  0  0  0  0  0  0  0
    3.8985    5.8960    0.0000 H   0  0  0  0  0  0  0  0  0  0  0  0
   24.2937   -2.8288    0.0000 H   0  0  0  0  0  0  0  0  0  0  0  0
   23.2862   -2.1912    0.0000 H   0  0  0  0  0  0  0  0  0  0  0  0
    3.7328   -6.1807    0.0000 H   0  0  0  0  0  0  0  0  0  0  0  0
    4.8369   -5.7305    0.0000 H   0  0  0  0  0  0  0  0  0  0  0  0
   22.4555    5.7963    0.0000 H   0  0  0  0  0  0  0  0  0  0  0  0
   23.6203    6.0512    0.0000 H   0  0  0  0  0  0  0  0  0  0  0  0
    1.5510    2.4534    0.0000 H   0  0  0  0  0  0  0  0  0  0  0  0
    2.6528    1.9974    0.0000 H   0  0  0  0  0  0  0  0  0  0  0  0
   24.7839   -0.6020    0.0000 H   0  0  0  0  0  0  0  0  0  0  0  0
   23.6719   -0.1715    0.0000 H   0  0  0  0  0  0  0  0  0  0  0  0
   24.4407    3.9237    0.0000 H   0  0  0  0  0  0  0  0  0  0  0  0
   23.2486    3.8993    0.0000 H   0  0  0  0  0  0  0  0  0  0  0  0
    2.5607   -4.2249    0.0000 H   0  0  0  0  0  0  0  0  0  0  0  0
    3.7311   -3.9970    0.0000 H   0  0  0  0  0  0  0  0  0  0  0  0
    1.4488    0.1755    0.0000 H   0  0  0  0  0  0  0  0  0  0  0  0
    2.6180   -0.0585    0.0000 H   0  0  0  0  0  0  0  0  0  0  0  0
  1 15  1  0  0  0  0
  1 31  1  0  0  0  0
  2 16  1  0  0  0  0
  2 32  1  0  0  0  0
  3 17  1  0  0  0  0
  3 33  1  0  0  0  0
  4 18  1  0  0  0  0
  4 34  1  0  0  0  0
  5 35  1  0  0  0  0
  5 39  1  0  0  0  0
  6 36  1  0  0  0  0
  6 40  1  0  0  0  0
  7 37  1  0  0  0  0
  7 41  1  0  0  0  0
  8 38  1  0  0  0  0
  8 42  1  0  0  0  0
  9 43  1  0  0  0  0
  9 44  1  0  0  0  0
 10 45  1  0  0  0  0
 10 46  1  0  0  0  0
 11 12  2  0  0  0  0
 11 15  1  0  0  0  0
 11 19  1  0  0  0  0
 12 16  1  0  0  0  0
 12 20  1  0  0  0  0
 13 14  2  0  0  0  0
 13 17  1  0  0  0  0
 13 21  1  0  0  0  0
 14 18  1  0  0  0  0
 14 22  1  0  0  0  0
 15 23  2  0  0  0  0
 16 24  2  0  0  0  0
 17 25  2  0  0  0  0
 18 26  2  0  0  0  0
 19 28  2  0  0  0  0
 19 47  1  0  0  0  0
 20 27  2  0  0  0  0
 20 48  1  0  0  0  0
 21 30  2  0  0  0  0
 21 49  1  0  0  0  0
 22 29  2  0  0  0  0
 22 50  1  0  0  0  0
 23 27  1  0  0  0  0
 23 51  1  0  0  0  0
 24 28  1  0  0  0  0
 24 52  1  0  0  0  0
 25 29  1  0  0  0  0
 25 53  1  0  0  0  0
 26 30  1  0  0  0  0
 26 54  1  0  0  0  0
 27 55  1  0  0  0  0
 28 56  1  0  0  0  0
 29 57  1  0  0  0  0
 30 58  1  0  0  0  0
 31 35  1  0  0  0  0
 31 59  1  0  0  0  0
 31 60  1  0  0  0  0
 32 36  1  0  0  0  0
 32 61  1  0  0  0  0
 32 62  1  0  0  0  0
 33 37  1  0  0  0  0
 33 63  1  0  0  0  0
 33 64  1  0  0  0  0
 34 38  1  0  0  0  0
 34 65  1  0  0  0  0
 34 66  1  0  0  0  0
 35 67  1  0  0  0  0
 35 68  1  0  0  0  0
 36 69  1  0  0  0  0
 36 70  1  0  0  0  0
 37 71  1  0  0  0  0
 37 72  1  0  0  0  0
 38 73  1  0  0  0  0
 38 74  1  0  0  0  0
 39 43  1  0  0  0  0
 39 75  1  0  0  0  0
 39 76  1  0  0  0  0
 40 45  1  0  0  0  0
 40 77  1  0  0  0  0
 40 78  1  0  0  0  0
 41 44  1  0  0  0  0
 41 79  1  0  0  0  0
 41 80  1  0  0  0  0
 42 46  1  0  0  0  0
 42 81  1  0  0  0  0
 42 82  1  0  0  0  0
 43 83  1  0  0  0  0
 43 84  1  0  0  0  0
 44 85  1  0  0  0  0
 44 86  1  0  0  0  0
 45 87  1  0  0  0  0
 45 88  1  0  0  0  0
 46 89  1  0  0  0  0
 46 90  1  0  0  0  0
M  END
> <PUBCHEM_COMPOUND_CID>
10678053

> <PUBCHEM_COMPOUND_CANONICALIZED>
1

> <PUBCHEM_CACTVS_COMPLEXITY>
651

> <PUBCHEM_CACTVS_HBOND_ACCEPTOR>
10

> <PUBCHEM_CACTVS_HBOND_DONOR>
0

> <PUBCHEM_CACTVS_ROTATABLE_BOND>
0

> <PUBCHEM_CACTVS_SUBSKEYS>
AAADcfB8PAAAAAAAAAAAAAAAAAAAAAAAAAAwYMGAAAAAAAABVAAAGgAAAAAADASgmAIwBsAABACAAiBCAAACCAAgIAAIiAAGCIgNJiKEMRqCOCCkwBEKqAfAwLAOgAABAAAYAAAAAAIAADAAAAAAAAAAAA==

> <PUBCHEM_IUPAC_OPENEYE_NAME>
6,9,12,15,18,29,32,35,38,41-decaoxapentacyclo[40.4.0.05,46.019,24.023,28]hexatetraconta-1(46),2,4,19,21,23,25,27,42,44-decaene

> <PUBCHEM_IUPAC_CAS_NAME>
6,9,12,15,18,29,32,35,38,41-decaoxapentacyclo[40.4.0.05,46.019,24.023,28]hexatetraconta-1(46),2,4,19,21,23,25,27,42,44-decaene

> <PUBCHEM_IUPAC_NAME_MARKUP>
6,9,12,15,18,29,32,35,38,41-decaoxapentacyclo[40.4.0.0<SUP>5,46</SUP>.0<SUP>19,24</SUP>.0<SUP>23,28</SUP>]hexatetraconta-1(46),2,4,19,21,23,25,27,42,44-decaene

> <PUBCHEM_IUPAC_NAME>
6,9,12,15,18,29,32,35,38,41-decaoxapentacyclo[40.4.0.05,46.019,24.023,28]hexatetraconta-1(46),2,4,19,21,23,25,27,42,44-decaene

> <PUBCHEM_IUPAC_SYSTEMATIC_NAME>
6,9,12,15,18,29,32,35,38,41-decaoxapentacyclo[40.4.0.05,46.019,24.023,28]hexatetraconta-1(46),2,4,19,21,23,25,27,42,44-decaene

> <PUBCHEM_IUPAC_TRADITIONAL_NAME>
6,9,12,15,18,29,32,35,38,41-decaoxapentacyclo[40.4.0.05,46.019,24.023,28]hexatetraconta-1(46),2,4,19,21,23,25,27,42,44-decaene

> <PUBCHEM_IUPAC_INCHI>
InChI=1S/C36H44O10/c1-5-29-30-6-2-10-34(29)44-26-22-40-18-14-38-16-20-42-24-28-46-36-12-4-7-31-32(36)8-3-11-35(31)45-27-23-41-19-15-37-13-17-39-21-25-43-33(30)9-1/h1-12H,13-28H2

> <PUBCHEM_IUPAC_INCHIKEY>
NBIUUSZJGWLLNW-UHFFFAOYSA-N

> <PUBCHEM_XLOGP3_AA>
4.9

> <PUBCHEM_EXACT_MASS>
636.29344760

> <PUBCHEM_MOLECULAR_FORMULA>
C36H44O10

> <PUBCHEM_MOLECULAR_WEIGHT>
636.7

> <PUBCHEM_SMILES>
C1COCCOC2=CC=CC3=C2C=CC=C3OCCOCCOCCOCCOC4=CC=CC5=C4C=CC=C5OCCOCCO1

> <PUBCHEM_CONNECTIVITY_SMILES>
C1COCCOC2=CC=CC3=C2C=CC=C3OCCOCCOCCOCCOC4=CC=CC5=C4C=CC=C5OCCOCCO1

> <PUBCHEM_CACTVS_TPSA>
92.3

> <PUBCHEM_MONOISOTOPIC_WEIGHT>
636.29344760

> <PUBCHEM_TOTAL_CHARGE>
0

> <PUBCHEM_HEAVY_ATOM_COUNT>
46

> <PUBCHEM_ATOM_DEF_STEREO_COUNT>
0

> <PUBCHEM_ATOM_UDEF_STEREO_COUNT>
0

> <PUBCHEM_BOND_DEF_STEREO_COUNT>
0

> <PUBCHEM_BOND_UDEF_STEREO_COUNT>
0

> <PUBCHEM_ISOTOPIC_ATOM_COUNT>
0

> <PUBCHEM_COMPONENT_COUNT>
1

> <PUBCHEM_CACTVS_TAUTO_COUNT>
-1

> <PUBCHEM_COORDINATE_TYPE>
1
5
255

> <PUBCHEM_BONDANNOTATIONS>
11  12  8
11  15  8
11  19  8
12  16  8
12  20  8
13  14  8
13  17  8
13  21  8
14  18  8
14  22  8
15  23  8
16  24  8
17  25  8
18  26  8
19  28  8
20  27  8
21  30  8
22  29  8
23  27  8
24  28  8
25  29  8
26  30  8

$$$$
