13451115
  -OEChem-09082500052D

 62 64  0     0  0  0  0  0  0999 V2000
    7.4348   -1.6613    0.0000 S   0  0  0  0  0  0  0  0  0  0  0  0
    5.5126    1.6682    0.0000 S   0  0  0  0  0  0  0  0  0  0  0  0
    6.6055    0.0795    0.0000 F   0  0  0  0  0  0  0  0  0  0  0  0
    3.7667   -1.1645    0.0000 F   0  0  0  0  0  0  0  0  0  0  0  0
    7.2089   -2.6355    0.0000 O   0  0  0  0  0  0  0  0  0  0  0  0
    8.1655   -2.3440    0.0000 O   0  0  0  0  0  0  0  0  0  0  0  0
    4.8299    2.3988    0.0000 O   0  0  0  0  0  0  0  0  0  0  0  0
    5.8040    2.6247    0.0000 O   0  0  0  0  0  0  0  0  0  0  0  0
   10.0696    2.0795    0.0000 C   0  0  0  0  0  0  0  0  0  0  0  0
    2.8660   -2.0795    0.0000 C   0  0  0  0  0  0  0  0  0  0  0  0
    9.2036    1.5795    0.0000 C   0  0  0  0  0  0  0  0  0  0  0  0
    3.7320   -1.5795    0.0000 C   0  0  0  0  0  0  0  0  0  0  0  0
    8.1247   -0.9146    0.0000 C   0  0  0  0  0  0  0  0  0  0  0  0
    6.4607   -1.9521    0.0000 C   0  0  0  0  0  0  0  0  0  0  0  0
    6.5042    1.8922    0.0000 C   0  0  0  0  0  0  0  0  0  0  0  0
    4.7737    0.9699    0.0000 C   0  0  0  0  0  0  0  0  0  0  0  0
    8.3375    0.0795    0.0000 C   0  0  0  0  0  0  0  0  0  0  0  0
    5.4744   -1.7057    0.0000 C   0  0  0  0  0  0  0  0  0  0  0  0
    7.4715    1.5795    0.0000 C   0  0  0  0  0  0  0  0  0  0  0  0
    4.4940   -0.0075    0.0000 C   0  0  0  0  0  0  0  0  0  0  0  0
    8.3375    2.0795    0.0000 C   0  0  0  0  0  0  0  0  0  0  0  0
    3.6963   -0.5915    0.0000 C   0  0  0  0  0  0  0  0  0  0  0  0
    9.2036    0.5795    0.0000 C   0  0  0  0  0  0  0  0  0  0  0  0
    4.5698   -2.1044    0.0000 C   0  0  0  0  0  0  0  0  0  0  0  0
    7.4715    0.5795    0.0000 C   0  0  0  0  0  0  0  0  0  0  0  0
    4.7515   -0.9909    0.0000 C   0  0  0  0  0  0  0  0  0  0  0  0
   10.9356    2.5795    0.0000 C   0  0  0  0  0  0  0  0  0  0  0  0
   10.5696    1.2135    0.0000 C   0  0  0  0  0  0  0  0  0  0  0  0
    9.5696    2.9455    0.0000 C   0  0  0  0  0  0  0  0  0  0  0  0
    2.0000   -2.5795    0.0000 C   0  0  0  0  0  0  0  0  0  0  0  0
    2.3660   -1.2135    0.0000 C   0  0  0  0  0  0  0  0  0  0  0  0
    3.3660   -2.9455    0.0000 C   0  0  0  0  0  0  0  0  0  0  0  0
    8.4108   -1.4646    0.0000 H   0  0  0  0  0  0  0  0  0  0  0  0
    7.5743   -0.6292    0.0000 H   0  0  0  0  0  0  0  0  0  0  0  0
    6.1157   -2.4672    0.0000 H   0  0  0  0  0  0  0  0  0  0  0  0
    6.4467   -1.3322    0.0000 H   0  0  0  0  0  0  0  0  0  0  0  0
    6.8833    2.3828    0.0000 H   0  0  0  0  0  0  0  0  0  0  0  0
    6.4761    1.2728    0.0000 H   0  0  0  0  0  0  0  0  0  0  0  0
    4.5255    1.5381    0.0000 H   0  0  0  0  0  0  0  0  0  0  0  0
    5.3035    0.6478    0.0000 H   0  0  0  0  0  0  0  0  0  0  0  0
    8.3375    2.6995    0.0000 H   0  0  0  0  0  0  0  0  0  0  0  0
    3.1384   -0.3211    0.0000 H   0  0  0  0  0  0  0  0  0  0  0  0
    9.7405    0.2695    0.0000 H   0  0  0  0  0  0  0  0  0  0  0  0
    4.5250   -2.7228    0.0000 H   0  0  0  0  0  0  0  0  0  0  0  0
   11.2456    2.0426    0.0000 H   0  0  0  0  0  0  0  0  0  0  0  0
   11.4725    2.8895    0.0000 H   0  0  0  0  0  0  0  0  0  0  0  0
   10.6256    3.1164    0.0000 H   0  0  0  0  0  0  0  0  0  0  0  0
   10.0326    0.9035    0.0000 H   0  0  0  0  0  0  0  0  0  0  0  0
   10.8796    0.6765    0.0000 H   0  0  0  0  0  0  0  0  0  0  0  0
   11.1065    1.5235    0.0000 H   0  0  0  0  0  0  0  0  0  0  0  0
   10.1065    3.2555    0.0000 H   0  0  0  0  0  0  0  0  0  0  0  0
    9.2596    3.4824    0.0000 H   0  0  0  0  0  0  0  0  0  0  0  0
    9.0326    2.6355    0.0000 H   0  0  0  0  0  0  0  0  0  0  0  0
    1.6900   -2.0426    0.0000 H   0  0  0  0  0  0  0  0  0  0  0  0
    1.4631   -2.8895    0.0000 H   0  0  0  0  0  0  0  0  0  0  0  0
    2.3100   -3.1164    0.0000 H   0  0  0  0  0  0  0  0  0  0  0  0
    2.9030   -0.9035    0.0000 H   0  0  0  0  0  0  0  0  0  0  0  0
    2.0560   -0.6765    0.0000 H   0  0  0  0  0  0  0  0  0  0  0  0
    1.8291   -1.5235    0.0000 H   0  0  0  0  0  0  0  0  0  0  0  0
    2.8291   -3.2555    0.0000 H   0  0  0  0  0  0  0  0  0  0  0  0
    3.6760   -3.4824    0.0000 H   0  0  0  0  0  0  0  0  0  0  0  0
    3.9030   -2.6355    0.0000 H   0  0  0  0  0  0  0  0  0  0  0  0
  1  5  2  0  0  0  0
  1  6  2  0  0  0  0
  1 13  1  0  0  0  0
  1 14  1  0  0  0  0
  2  7  2  0  0  0  0
  2  8  2  0  0  0  0
  2 15  1  0  0  0  0
  2 16  1  0  0  0  0
  3 25  1  0  0  0  0
  4 26  1  0  0  0  0
  9 11  1  0  0  0  0
  9 27  1  0  0  0  0
  9 28  1  0  0  0  0
  9 29  1  0  0  0  0
 10 12  1  0  0  0  0
 10 30  1  0  0  0  0
 10 31  1  0  0  0  0
 10 32  1  0  0  0  0
 11 21  2  0  0  0  0
 11 23  1  0  0  0  0
 12 22  2  0  0  0  0
 12 24  1  0  0  0  0
 13 17  1  0  0  0  0
 13 33  1  0  0  0  0
 13 34  1  0  0  0  0
 14 18  1  0  0  0  0
 14 35  1  0  0  0  0
 14 36  1  0  0  0  0
 15 19  1  0  0  0  0
 15 37  1  0  0  0  0
 15 38  1  0  0  0  0
 16 20  1  0  0  0  0
 16 39  1  0  0  0  0
 16 40  1  0  0  0  0
 17 23  2  0  0  0  0
 17 25  1  0  0  0  0
 18 24  2  0  0  0  0
 18 26  1  0  0  0  0
 19 21  1  0  0  0  0
 19 25  2  0  0  0  0
 20 22  1  0  0  0  0
 20 26  2  0  0  0  0
 21 41  1  0  0  0  0
 22 42  1  0  0  0  0
 23 43  1  0  0  0  0
 24 44  1  0  0  0  0
 27 45  1  0  0  0  0
 27 46  1  0  0  0  0
 27 47  1  0  0  0  0
 28 48  1  0  0  0  0
 28 49  1  0  0  0  0
 28 50  1  0  0  0  0
 29 51  1  0  0  0  0
 29 52  1  0  0  0  0
 29 53  1  0  0  0  0
 30 54  1  0  0  0  0
 30 55  1  0  0  0  0
 30 56  1  0  0  0  0
 31 57  1  0  0  0  0
 31 58  1  0  0  0  0
 31 59  1  0  0  0  0
 32 60  1  0  0  0  0
 32 61  1  0  0  0  0
 32 62  1  0  0  0  0
M  END
> <PUBCHEM_COMPOUND_CID>
13451115

> <PUBCHEM_COMPOUND_CANONICALIZED>
1

> <PUBCHEM_CACTVS_COMPLEXITY>
757

> <PUBCHEM_CACTVS_HBOND_ACCEPTOR>
6

> <PUBCHEM_CACTVS_HBOND_DONOR>
0

> <PUBCHEM_CACTVS_ROTATABLE_BOND>
2

> <PUBCHEM_CACTVS_SUBSKEYS>
AAADceB4OYBgAAAAAAAAAAAAAAAAAAAAAAAwYAAAAAAAAAABQAAAGQQAAAAADgCEWAiyAIAAAAqAAiBCAHBCAAAgABAAiAAAAIgIICKgERCAIAAggAAoiAcAgMAPgAACAAAAAAAAAAQAAAAAAAAAAAAAAA==

> <PUBCHEM_IUPAC_OPENEYE_NAME>
7,15-ditert-butyl-17,18-difluoro-3lambda6,11lambda6-dithiatricyclo[11.3.1.15,9]octadeca-1(16),5,7,9(18),13(17),14-hexaene 3,3,11,11-tetraoxide

> <PUBCHEM_IUPAC_CAS_NAME>
7,15-ditert-butyl-17,18-difluoro-3lambda6,11lambda6-dithiatricyclo[11.3.1.15,9]octadeca-1(16),5,7,9(18),13(17),14-hexaene 3,3,11,11-tetraoxide

> <PUBCHEM_IUPAC_NAME_MARKUP>
7,15-di<I>tert</I>-butyl-17,18-difluoro-3&lambda;<SUP>6</SUP>,11&lambda;<SUP>6</SUP>-dithiatricyclo[11.3.1.1<SUP>5,9</SUP>]octadeca-1(16),5,7,9(18),13(17),14-hexaene 3,3,11,11-tetraoxide

> <PUBCHEM_IUPAC_NAME>
7,15-ditert-butyl-17,18-difluoro-3lambda6,11lambda6-dithiatricyclo[11.3.1.15,9]octadeca-1(16),5,7,9(18),13(17),14-hexaene 3,3,11,11-tetraoxide

> <PUBCHEM_IUPAC_SYSTEMATIC_NAME>
7,15-ditert-butyl-17,18-bis(fluoranyl)-3lambda6,11lambda6-dithiatricyclo[11.3.1.15,9]octadeca-1(16),5,7,9(18),13(17),14-hexaene 3,3,11,11-tetraoxide

> <PUBCHEM_IUPAC_TRADITIONAL_NAME>
7,15-ditert-butyl-17,18-difluoro-3lambda6,11lambda6-dithiatricyclo[11.3.1.15,9]octadeca-1(16),5,7,9(18),13(17),14-hexaene 3,3,11,11-tetraoxide

> <PUBCHEM_IUPAC_INCHI>
InChI=1S/C24H30F2O4S2/c1-23(2,3)19-7-15-11-31(27,28)13-17-9-20(24(4,5)6)10-18(22(17)26)14-32(29,30)12-16(8-19)21(15)25/h7-10H,11-14H2,1-6H3

> <PUBCHEM_IUPAC_INCHIKEY>
RGNFOGRTSOUTSV-UHFFFAOYSA-N

> <PUBCHEM_XLOGP3_AA>
4.9

> <PUBCHEM_EXACT_MASS>
484.15535811

> <PUBCHEM_MOLECULAR_FORMULA>
C24H30F2O4S2

> <PUBCHEM_MOLECULAR_WEIGHT>
484.6

> <PUBCHEM_SMILES>
CC(C)(C)C1=CC2=C(C(=C1)CS(=O)(=O)CC3=CC(=CC(=C3F)CS(=O)(=O)C2)C(C)(C)C)F

> <PUBCHEM_CONNECTIVITY_SMILES>
CC(C)(C)C1=CC2=C(C(=C1)CS(=O)(=O)CC3=CC(=CC(=C3F)CS(=O)(=O)C2)C(C)(C)C)F

> <PUBCHEM_CACTVS_TPSA>
85

> <PUBCHEM_MONOISOTOPIC_WEIGHT>
484.15535811

> <PUBCHEM_TOTAL_CHARGE>
0

> <PUBCHEM_HEAVY_ATOM_COUNT>
32

> <PUBCHEM_ATOM_DEF_STEREO_COUNT>
0

> <PUBCHEM_ATOM_UDEF_STEREO_COUNT>
0

> <PUBCHEM_BOND_DEF_STEREO_COUNT>
0

> <PUBCHEM_BOND_UDEF_STEREO_COUNT>
0

> <PUBCHEM_ISOTOPIC_ATOM_COUNT>
0

> <PUBCHEM_COMPONENT_COUNT>
1

> <PUBCHEM_CACTVS_TAUTO_COUNT>
-1

> <PUBCHEM_COORDINATE_TYPE>
1
5
255

> <PUBCHEM_BONDANNOTATIONS>
11  21  8
11  23  8
12  22  8
12  24  8
17  23  8
17  25  8
18  24  8
18  26  8
19  21  8
19  25  8
20  22  8
20  26  8

$$$$
