15266868
  -OEChem-09082500252D

 54 60  0     0  0  0  0  0  0999 V2000
    6.8399   -2.5344    0.0000 O   0  0  0  0  0  0  0  0  0  0  0  0
    4.9195    2.9528    0.0000 O   0  0  0  0  0  0  0  0  0  0  0  0
    7.5027   -0.9342    0.0000 O   0  0  0  0  0  0  0  0  0  0  0  0
    6.6515    2.9528    0.0000 O   0  0  0  0  0  0  0  0  0  0  0  0
    5.7855   -1.1603    0.0000 C   0  0  0  0  0  0  0  0  0  0  0  0
    5.7855    1.4528    0.0000 C   0  0  0  0  0  0  0  0  0  0  0  0
    6.7094   -0.7776    0.0000 C   0  0  0  0  0  0  0  0  0  0  0  0
    4.8616    1.0702    0.0000 C   0  0  0  0  0  0  0  0  0  0  0  0
    4.8616   -0.7776    0.0000 C   0  0  0  0  0  0  0  0  0  0  0  0
    5.0438   -1.8334    0.0000 C   0  0  0  0  0  0  0  0  0  0  0  0
    6.7094    1.0702    0.0000 C   0  0  0  0  0  0  0  0  0  0  0  0
    5.3918    0.5275    0.0000 C   0  0  0  0  0  0  0  0  0  0  0  0
    7.0921    0.1463    0.0000 C   0  0  0  0  0  0  0  0  0  0  0  0
    5.7767   -0.4016    0.0000 C   0  0  0  0  0  0  0  0  0  0  0  0
    4.0806   -1.5586    0.0000 C   0  0  0  0  0  0  0  0  0  0  0  0
    4.4789    0.1463    0.0000 C   0  0  0  0  0  0  0  0  0  0  0  0
    6.7094   -1.5430    0.0000 C   0  0  0  0  0  0  0  0  0  0  0  0
    5.7855    2.4528    0.0000 C   0  0  0  0  0  0  0  0  0  0  0  0
    4.1052   -2.1015    0.0000 C   0  0  0  0  0  0  0  0  0  0  0  0
    5.3131   -2.8414    0.0000 C   0  0  0  0  0  0  0  0  0  0  0  0
    7.3307    1.9062    0.0000 C   0  0  0  0  0  0  0  0  0  0  0  0
    4.3555    0.6802    0.0000 C   0  0  0  0  0  0  0  0  0  0  0  0
    8.1226   -0.0056    0.0000 C   0  0  0  0  0  0  0  0  0  0  0  0
    5.1519   -1.2424    0.0000 C   0  0  0  0  0  0  0  0  0  0  0  0
    3.3200   -2.2727    0.0000 C   0  0  0  0  0  0  0  0  0  0  0  0
    3.0079    0.5476    0.0000 C   0  0  0  0  0  0  0  0  0  0  0  0
    2.5835   -2.0052    0.0000 C   0  0  0  0  0  0  0  0  0  0  0  0
    4.5692   -3.5728    0.0000 C   0  0  0  0  0  0  0  0  0  0  0  0
    8.3644    1.7782    0.0000 C   0  0  0  0  0  0  0  0  0  0  0  0
    3.7115   -0.1459    0.0000 C   0  0  0  0  0  0  0  0  0  0  0  0
    8.7630    0.8159    0.0000 C   0  0  0  0  0  0  0  0  0  0  0  0
    4.1123   -1.1137    0.0000 C   0  0  0  0  0  0  0  0  0  0  0  0
    3.5659   -3.2866    0.0000 C   0  0  0  0  0  0  0  0  0  0  0  0
    2.0000   -0.5965    0.0000 C   0  0  0  0  0  0  0  0  0  0  0  0
    7.1478   -1.2160    0.0000 H   0  0  0  0  0  0  0  0  0  0  0  0
    4.4232    1.5086    0.0000 H   0  0  0  0  0  0  0  0  0  0  0  0
    4.3993   -2.6473    0.0000 H   0  0  0  0  0  0  0  0  0  0  0  0
    5.9112   -3.0046    0.0000 H   0  0  0  0  0  0  0  0  0  0  0  0
    7.0868    2.4762    0.0000 H   0  0  0  0  0  0  0  0  0  0  0  0
    4.1249    1.2557    0.0000 H   0  0  0  0  0  0  0  0  0  0  0  0
    8.3532   -0.5811    0.0000 H   0  0  0  0  0  0  0  0  0  0  0  0
    5.3958   -1.8124    0.0000 H   0  0  0  0  0  0  0  0  0  0  0  0
    2.7258   -2.0957    0.0000 H   0  0  0  0  0  0  0  0  0  0  0  0
    2.8300    1.1415    0.0000 H   0  0  0  0  0  0  0  0  0  0  0  0
    2.2229   -2.5096    0.0000 H   0  0  0  0  0  0  0  0  0  0  0  0
    4.7223   -4.1736    0.0000 H   0  0  0  0  0  0  0  0  0  0  0  0
    8.7399    2.2715    0.0000 H   0  0  0  0  0  0  0  0  0  0  0  0
    3.0971   -0.0626    0.0000 H   0  0  0  0  0  0  0  0  0  0  0  0
    9.3774    0.7326    0.0000 H   0  0  0  0  0  0  0  0  0  0  0  0
    3.7368   -1.6070    0.0000 H   0  0  0  0  0  0  0  0  0  0  0  0
    3.1188   -3.7161    0.0000 H   0  0  0  0  0  0  0  0  0  0  0  0
    1.3884   -0.4949    0.0000 H   0  0  0  0  0  0  0  0  0  0  0  0
    7.4127   -2.7717    0.0000 H   0  0  0  0  0  0  0  0  0  0  0  0
    4.9195    3.5728    0.0000 H   0  0  0  0  0  0  0  0  0  0  0  0
  1 17  1  0  0  0  0
  1 53  1  0  0  0  0
  2 18  1  0  0  0  0
  2 54  1  0  0  0  0
  3 17  2  0  0  0  0
  4 18  2  0  0  0  0
  5  7  1  0  0  0  0
  5  9  1  0  0  0  0
  5 10  1  0  0  0  0
  5 17  1  0  0  0  0
  6  8  1  0  0  0  0
  6 11  1  0  0  0  0
  6 12  1  0  0  0  0
  6 18  1  0  0  0  0
  7 13  1  0  0  0  0
  7 14  1  0  0  0  0
  7 35  1  0  0  0  0
  8 15  1  0  0  0  0
  8 16  1  0  0  0  0
  8 36  1  0  0  0  0
  9 16  1  0  0  0  0
  9 19  2  0  0  0  0
 10 15  1  0  0  0  0
 10 20  2  0  0  0  0
 11 13  1  0  0  0  0
 11 21  2  0  0  0  0
 12 14  1  0  0  0  0
 12 22  2  0  0  0  0
 13 23  2  0  0  0  0
 14 24  2  0  0  0  0
 15 25  2  0  0  0  0
 16 26  2  0  0  0  0
 19 27  1  0  0  0  0
 19 37  1  0  0  0  0
 20 28  1  0  0  0  0
 20 38  1  0  0  0  0
 21 29  1  0  0  0  0
 21 39  1  0  0  0  0
 22 30  1  0  0  0  0
 22 40  1  0  0  0  0
 23 31  1  0  0  0  0
 23 41  1  0  0  0  0
 24 32  1  0  0  0  0
 24 42  1  0  0  0  0
 25 33  1  0  0  0  0
 25 43  1  0  0  0  0
 26 34  1  0  0  0  0
 26 44  1  0  0  0  0
 27 34  2  0  0  0  0
 27 45  1  0  0  0  0
 28 33  2  0  0  0  0
 28 46  1  0  0  0  0
 29 31  2  0  0  0  0
 29 47  1  0  0  0  0
 30 32  2  0  0  0  0
 30 48  1  0  0  0  0
 31 49  1  0  0  0  0
 32 50  1  0  0  0  0
 33 51  1  0  0  0  0
 34 52  1  0  0  0  0
M  END
> <PUBCHEM_COMPOUND_CID>
15266868

> <PUBCHEM_COMPOUND_CANONICALIZED>
1

> <PUBCHEM_CACTVS_COMPLEXITY>
746

> <PUBCHEM_CACTVS_HBOND_ACCEPTOR>
4

> <PUBCHEM_CACTVS_HBOND_DONOR>
2

> <PUBCHEM_CACTVS_ROTATABLE_BOND>
2

> <PUBCHEM_CACTVS_SUBSKEYS>
AAADceB4OAAAAAAAAAAAAAAAAAAAAAAAAAAwYMGDAAAYMADBVAAAGgAACAAADwCAmAAwCIAAAgCIAiDSCAACAAAgAAAIiAEAAIgIIDKAFRCAYAAkwAEIiAeIyPCPgAAAAAAQAACAAAQAACAAAAAAAAAAAA==

> <PUBCHEM_IUPAC_OPENEYE_NAME>
heptacyclo[8.6.6.62,9.03,8.011,16.017,22.023,28]octacosa-3,5,7,11,13,15,17,19,21,23,25,27-dodecaene-1,9-dicarboxylic acid

> <PUBCHEM_IUPAC_CAS_NAME>
heptacyclo[8.6.6.62,9.03,8.011,16.017,22.023,28]octacosa-3,5,7,11,13,15,17,19,21,23,25,27-dodecaene-1,9-dicarboxylic acid

> <PUBCHEM_IUPAC_NAME_MARKUP>
heptacyclo[8.6.6.6<SUP>2,9</SUP>.0<SUP>3,8</SUP>.0<SUP>11,16</SUP>.0<SUP>17,22</SUP>.0<SUP>23,28</SUP>]octacosa-3,5,7,11,13,15,17,19,21,23,25,27-dodecaene-1,9-dicarboxylic acid

> <PUBCHEM_IUPAC_NAME>
heptacyclo[8.6.6.62,9.03,8.011,16.017,22.023,28]octacosa-3,5,7,11,13,15,17,19,21,23,25,27-dodecaene-1,9-dicarboxylic acid

> <PUBCHEM_IUPAC_SYSTEMATIC_NAME>
heptacyclo[8.6.6.62,9.03,8.011,16.017,22.023,28]octacosa-3,5,7,11,13,15,17,19,21,23,25,27-dodecaene-1,9-dicarboxylic acid

> <PUBCHEM_IUPAC_TRADITIONAL_NAME>
heptacyclo[8.6.6.62,9.03,8.011,16.017,22.023,28]octacosa-3,5,7,11,13,15,17,19,21,23,25,27-dodecaene-1,9-dicarboxylic acid

> <PUBCHEM_IUPAC_INCHI>
InChI=1S/C30H20O4/c31-27(32)29-21-13-5-1-9-17(21)25(18-10-2-6-14-22(18)29)30(28(33)34)23-15-7-3-11-19(23)26(29)20-12-4-8-16-24(20)30/h1-16,25-26H,(H,31,32)(H,33,34)

> <PUBCHEM_IUPAC_INCHIKEY>
WMPDYCJCNCPTLQ-UHFFFAOYSA-N

> <PUBCHEM_XLOGP3_AA>
4.9

> <PUBCHEM_EXACT_MASS>
444.13615911

> <PUBCHEM_MOLECULAR_FORMULA>
C30H20O4

> <PUBCHEM_MOLECULAR_WEIGHT>
444.5

> <PUBCHEM_SMILES>
C1=CC=C2C(=C1)C3C4=CC=CC=C4C2(C5C6=CC=CC=C6C3(C7=CC=CC=C57)C(=O)O)C(=O)O

> <PUBCHEM_CONNECTIVITY_SMILES>
C1=CC=C2C(=C1)C3C4=CC=CC=C4C2(C5C6=CC=CC=C6C3(C7=CC=CC=C57)C(=O)O)C(=O)O

> <PUBCHEM_CACTVS_TPSA>
74.6

> <PUBCHEM_MONOISOTOPIC_WEIGHT>
444.13615911

> <PUBCHEM_TOTAL_CHARGE>
0

> <PUBCHEM_HEAVY_ATOM_COUNT>
34

> <PUBCHEM_ATOM_DEF_STEREO_COUNT>
0

> <PUBCHEM_ATOM_UDEF_STEREO_COUNT>
0

> <PUBCHEM_BOND_DEF_STEREO_COUNT>
0

> <PUBCHEM_BOND_UDEF_STEREO_COUNT>
0

> <PUBCHEM_ISOTOPIC_ATOM_COUNT>
0

> <PUBCHEM_COMPONENT_COUNT>
1

> <PUBCHEM_CACTVS_TAUTO_COUNT>
-1

> <PUBCHEM_COORDINATE_TYPE>
1
5
255

> <PUBCHEM_BONDANNOTATIONS>
10  15  8
10  20  8
11  13  8
11  21  8
12  14  8
12  22  8
13  23  8
14  24  8
15  25  8
16  26  8
19  27  8
20  28  8
21  29  8
22  30  8
23  31  8
24  32  8
25  33  8
26  34  8
27  34  8
28  33  8
29  31  8
30  32  8
9  16  8
9  19  8

$$$$
