172330628
  -OEChem-09072523572D

 84 91  0     1  0  0  0  0  0999 V2000
   12.2651   -7.7992    0.0000 F   0  0  0  0  0  0  0  0  0  0  0  0
   11.7583   -9.1195    0.0000 F   0  0  0  0  0  0  0  0  0  0  0  0
   10.4381   -8.6127    0.0000 F   0  0  0  0  0  0  0  0  0  0  0  0
    2.7696    6.6970    0.0000 O   0  0  0  0  0  0  0  0  0  0  0  0
    6.2939    5.6675    0.0000 O   0  0  0  0  0  0  0  0  0  0  0  0
    6.5830    9.1195    0.0000 O   0  0  0  0  0  0  0  0  0  0  0  0
    4.3009    5.8344    0.0000 N   0  0  0  0  0  0  0  0  0  0  0  0
    8.1301   -1.0900    0.0000 N   0  0  0  0  0  0  0  0  0  0  0  0
    8.1301   -3.0900    0.0000 N   0  0  0  0  0  0  0  0  0  0  0  0
    6.4385    7.3935    0.0000 N   0  0  0  0  0  0  0  0  0  0  0  0
    7.2641   -4.5900    0.0000 N   0  0  0  0  0  0  0  0  0  0  0  0
    8.1301   -6.0900    0.0000 N   0  0  0  0  0  0  0  0  0  0  0  0
    9.8622   -6.0900    0.0000 N   0  0  0  0  0  0  0  0  0  0  0  0
   11.4449   -6.4264    0.0000 N   0  0  0  0  0  0  0  0  0  0  0  0
    4.8714    6.6556    0.0000 C   0  0  1  0  0  0  0  0  0  0  0  0
    4.6660    4.9100    0.0000 C   0  0  0  0  0  0  0  0  0  0  0  0
    3.8000    4.4100    0.0000 C   0  0  0  0  0  0  0  0  0  0  0  0
    4.4455    7.5604    0.0000 C   0  0  0  0  0  0  0  0  0  0  0  0
    7.2641   -1.5900    0.0000 C   0  0  0  0  0  0  0  0  0  0  0  0
    8.9962   -1.5900    0.0000 C   0  0  0  0  0  0  0  0  0  0  0  0
    7.2641   -2.5900    0.0000 C   0  0  0  0  0  0  0  0  0  0  0  0
    8.9962   -2.5900    0.0000 C   0  0  0  0  0  0  0  0  0  0  0  0
    2.9061    4.9447    0.0000 C   0  0  0  0  0  0  0  0  0  0  0  0
    3.8000    3.4100    0.0000 C   0  0  0  0  0  0  0  0  0  0  0  0
    3.3073    5.8539    0.0000 C   0  0  0  0  0  0  0  0  0  0  0  0
    8.1301   -0.0900    0.0000 C   0  0  0  0  0  0  0  0  0  0  0  0
    4.6660    2.9100    0.0000 C   0  0  0  0  0  0  0  0  0  0  0  0
    5.0160    8.3816    0.0000 C   0  0  0  0  0  0  0  0  0  0  0  0
    5.8680    6.5722    0.0000 C   0  0  0  0  0  0  0  0  0  0  0  0
    5.5321    4.4100    0.0000 C   0  0  0  0  0  0  0  0  0  0  0  0
    4.6660    1.9100    0.0000 C   0  0  0  0  0  0  0  0  0  0  0  0
    5.5321    3.4100    0.0000 C   0  0  0  0  0  0  0  0  0  0  0  0
    7.2641    0.4100    0.0000 C   0  0  0  0  0  0  0  0  0  0  0  0
    2.0000    4.4309    0.0000 C   0  0  0  0  0  0  0  0  0  0  0  0
    2.9061    2.8754    0.0000 C   0  0  0  0  0  0  0  0  0  0  0  0
    5.5321    1.4100    0.0000 C   0  0  0  0  0  0  0  0  0  0  0  0
    8.1301   -4.0900    0.0000 C   0  0  0  0  0  0  0  0  0  0  0  0
    6.0125    8.2982    0.0000 C   0  0  0  0  0  0  0  0  0  0  0  0
    2.0000    3.3892    0.0000 C   0  0  0  0  0  0  0  0  0  0  0  0
    7.2641    1.4100    0.0000 C   0  0  0  0  0  0  0  0  0  0  0  0
    6.3981   -0.0900    0.0000 C   0  0  0  0  0  0  0  0  0  0  0  0
    6.3981    1.9100    0.0000 C   0  0  0  0  0  0  0  0  0  0  0  0
    5.5321    0.4100    0.0000 C   0  0  0  0  0  0  0  0  0  0  0  0
    8.9962   -4.5900    0.0000 C   0  0  0  0  0  0  0  0  0  0  0  0
    8.9962   -5.5900    0.0000 C   0  0  0  0  0  0  0  0  0  0  0  0
    7.2641   -5.5900    0.0000 C   0  0  0  0  0  0  0  0  0  0  0  0
    6.3981   -6.0900    0.0000 C   0  0  0  0  0  0  0  0  0  0  0  0
    9.9667   -7.0845    0.0000 C   0  0  0  0  0  0  0  0  0  0  0  0
   10.7757   -5.6832    0.0000 C   0  0  0  0  0  0  0  0  0  0  0  0
   10.9449   -7.2924    0.0000 C   0  0  0  0  0  0  0  0  0  0  0  0
   11.3516   -8.2059    0.0000 C   0  0  0  0  0  0  0  0  0  0  0  0
    4.2536    6.7074    0.0000 H   0  0  0  0  0  0  0  0  0  0  0  0
    7.0521   -1.0074    0.0000 H   0  0  0  0  0  0  0  0  0  0  0  0
    6.6535   -1.6976    0.0000 H   0  0  0  0  0  0  0  0  0  0  0  0
    9.6067   -1.6976    0.0000 H   0  0  0  0  0  0  0  0  0  0  0  0
    9.2082   -1.0074    0.0000 H   0  0  0  0  0  0  0  0  0  0  0  0
    4.0054    7.9971    0.0000 H   0  0  0  0  0  0  0  0  0  0  0  0
    3.9389    7.2029    0.0000 H   0  0  0  0  0  0  0  0  0  0  0  0
    6.6535   -2.4823    0.0000 H   0  0  0  0  0  0  0  0  0  0  0  0
    7.0521   -3.1726    0.0000 H   0  0  0  0  0  0  0  0  0  0  0  0
    9.2082   -3.1726    0.0000 H   0  0  0  0  0  0  0  0  0  0  0  0
    9.6067   -2.4823    0.0000 H   0  0  0  0  0  0  0  0  0  0  0  0
    8.7407   -0.1976    0.0000 H   0  0  0  0  0  0  0  0  0  0  0  0
    8.3422    0.4927    0.0000 H   0  0  0  0  0  0  0  0  0  0  0  0
    5.1742    8.9811    0.0000 H   0  0  0  0  0  0  0  0  0  0  0  0
    4.4531    8.6416    0.0000 H   0  0  0  0  0  0  0  0  0  0  0  0
    6.0690    4.7200    0.0000 H   0  0  0  0  0  0  0  0  0  0  0  0
    4.0555    2.0177    0.0000 H   0  0  0  0  0  0  0  0  0  0  0  0
    4.4540    1.3274    0.0000 H   0  0  0  0  0  0  0  0  0  0  0  0
    6.0690    3.1000    0.0000 H   0  0  0  0  0  0  0  0  0  0  0  0
    1.4643    4.7429    0.0000 H   0  0  0  0  0  0  0  0  0  0  0  0
    2.9132    2.2554    0.0000 H   0  0  0  0  0  0  0  0  0  0  0  0
    7.0563    7.3417    0.0000 H   0  0  0  0  0  0  0  0  0  0  0  0
    1.4643    3.0772    0.0000 H   0  0  0  0  0  0  0  0  0  0  0  0
    7.8010    1.7200    0.0000 H   0  0  0  0  0  0  0  0  0  0  0  0
    6.3981   -0.7100    0.0000 H   0  0  0  0  0  0  0  0  0  0  0  0
    6.3981    2.5300    0.0000 H   0  0  0  0  0  0  0  0  0  0  0  0
    4.9951    0.1000    0.0000 H   0  0  0  0  0  0  0  0  0  0  0  0
    9.5331   -4.2800    0.0000 H   0  0  0  0  0  0  0  0  0  0  0  0
    6.0881   -5.5530    0.0000 H   0  0  0  0  0  0  0  0  0  0  0  0
    5.8612   -6.4000    0.0000 H   0  0  0  0  0  0  0  0  0  0  0  0
    6.7081   -6.6269    0.0000 H   0  0  0  0  0  0  0  0  0  0  0  0
    9.5060   -7.4993    0.0000 H   0  0  0  0  0  0  0  0  0  0  0  0
   10.9046   -5.0768    0.0000 H   0  0  0  0  0  0  0  0  0  0  0  0
  1 51  1  0  0  0  0
  2 51  1  0  0  0  0
  3 51  1  0  0  0  0
  4 25  2  0  0  0  0
  5 29  2  0  0  0  0
  6 38  2  0  0  0  0
 15  7  1  1  0  0  0
  7 16  1  0  0  0  0
  7 25  1  0  0  0  0
  8 19  1  0  0  0  0
  8 20  1  0  0  0  0
  8 26  1  0  0  0  0
  9 21  1  0  0  0  0
  9 22  1  0  0  0  0
  9 37  1  0  0  0  0
 10 29  1  0  0  0  0
 10 38  1  0  0  0  0
 10 73  1  0  0  0  0
 11 37  2  0  0  0  0
 11 46  1  0  0  0  0
 12 45  1  0  0  0  0
 12 46  2  0  0  0  0
 13 45  1  0  0  0  0
 13 48  1  0  0  0  0
 13 49  1  0  0  0  0
 14 49  2  0  0  0  0
 14 50  1  0  0  0  0
 15 18  1  0  0  0  0
 15 29  1  0  0  0  0
 15 52  1  0  0  0  0
 16 17  2  0  0  0  0
 16 30  1  0  0  0  0
 17 23  1  0  0  0  0
 17 24  1  0  0  0  0
 18 28  1  0  0  0  0
 18 57  1  0  0  0  0
 18 58  1  0  0  0  0
 19 21  1  0  0  0  0
 19 53  1  0  0  0  0
 19 54  1  0  0  0  0
 20 22  1  0  0  0  0
 20 55  1  0  0  0  0
 20 56  1  0  0  0  0
 21 59  1  0  0  0  0
 21 60  1  0  0  0  0
 22 61  1  0  0  0  0
 22 62  1  0  0  0  0
 23 25  1  0  0  0  0
 23 34  2  0  0  0  0
 24 27  2  0  0  0  0
 24 35  1  0  0  0  0
 26 33  1  0  0  0  0
 26 63  1  0  0  0  0
 26 64  1  0  0  0  0
 27 31  1  0  0  0  0
 27 32  1  0  0  0  0
 28 38  1  0  0  0  0
 28 65  1  0  0  0  0
 28 66  1  0  0  0  0
 30 32  2  0  0  0  0
 30 67  1  0  0  0  0
 31 36  1  0  0  0  0
 31 68  1  0  0  0  0
 31 69  1  0  0  0  0
 32 70  1  0  0  0  0
 33 40  2  0  0  0  0
 33 41  1  0  0  0  0
 34 39  1  0  0  0  0
 34 71  1  0  0  0  0
 35 39  2  0  0  0  0
 35 72  1  0  0  0  0
 36 42  2  0  0  0  0
 36 43  1  0  0  0  0
 37 44  1  0  0  0  0
 39 74  1  0  0  0  0
 40 42  1  0  0  0  0
 40 75  1  0  0  0  0
 41 43  2  0  0  0  0
 41 76  1  0  0  0  0
 42 77  1  0  0  0  0
 43 78  1  0  0  0  0
 44 45  2  0  0  0  0
 44 79  1  0  0  0  0
 46 47  1  0  0  0  0
 47 80  1  0  0  0  0
 47 81  1  0  0  0  0
 47 82  1  0  0  0  0
 48 50  2  0  0  0  0
 48 83  1  0  0  0  0
 49 84  1  0  0  0  0
 50 51  1  0  0  0  0
M  END
> <PUBCHEM_COMPOUND_CID>
172330628

> <PUBCHEM_COMPOUND_CANONICALIZED>
1

> <PUBCHEM_CACTVS_COMPLEXITY>
1290

> <PUBCHEM_CACTVS_HBOND_ACCEPTOR>
11

> <PUBCHEM_CACTVS_HBOND_DONOR>
1

> <PUBCHEM_CACTVS_ROTATABLE_BOND>
7

> <PUBCHEM_CACTVS_SUBSKEYS>
AAADcfB/8YAAAAAAAAAAAAAAAAAAAWLAAAA8ePECAAAAAFjB9AAAHwAQAAAADCjBnxQ/8NfMEACoAzd3dACCgC01EqAJ2CG4dNiIaHLA3fGUJQholiLIyacci8COyAACQAASAACQAASAACQAAAAAAAAAAA==

> <PUBCHEM_IUPAC_OPENEYE_NAME>
(3S)-3-[6-[[4-[[4-[2-methyl-6-[4-(trifluoromethyl)imidazol-1-yl]pyrimidin-4-yl]piperazin-1-yl]methyl]phenyl]methyl]-2-oxo-benzo[cd]indol-1-yl]piperidine-2,6-dione

> <PUBCHEM_IUPAC_CAS_NAME>
(3S)-3-[6-[[4-[[4-[2-methyl-6-[4-(trifluoromethyl)-1-imidazolyl]-4-pyrimidinyl]-1-piperazinyl]methyl]phenyl]methyl]-2-oxo-1-benzo[cd]indolyl]piperidine-2,6-dione

> <PUBCHEM_IUPAC_NAME_MARKUP>
(3<I>S</I>)-3-[6-[[4-[[4-[2-methyl-6-[4-(trifluoromethyl)imidazol-1-yl]pyrimidin-4-yl]piperazin-1-yl]methyl]phenyl]methyl]-2-oxobenzo[cd]indol-1-yl]piperidine-2,6-dione

> <PUBCHEM_IUPAC_NAME>
(3S)-3-[6-[[4-[[4-[2-methyl-6-[4-(trifluoromethyl)imidazol-1-yl]pyrimidin-4-yl]piperazin-1-yl]methyl]phenyl]methyl]-2-oxobenzo[cd]indol-1-yl]piperidine-2,6-dione

> <PUBCHEM_IUPAC_SYSTEMATIC_NAME>
(3S)-3-[6-[[4-[[4-[2-methyl-6-[4-(trifluoromethyl)imidazol-1-yl]pyrimidin-4-yl]piperazin-1-yl]methyl]phenyl]methyl]-2-oxidanylidene-benzo[cd]indol-1-yl]piperidine-2,6-dione

> <PUBCHEM_IUPAC_TRADITIONAL_NAME>
(3S)-3-[2-keto-6-[4-[[4-[2-methyl-6-[4-(trifluoromethyl)imidazol-1-yl]pyrimidin-4-yl]piperazino]methyl]benzyl]benzo[cd]indol-1-yl]piperidine-2,6-quinone

> <PUBCHEM_IUPAC_INCHI>
InChI=1S/C37H33F3N8O3/c1-22-42-31(18-32(43-22)47-20-30(41-21-47)37(38,39)40)46-15-13-45(14-16-46)19-24-7-5-23(6-8-24)17-25-9-10-28-34-26(25)3-2-4-27(34)36(51)48(28)29-11-12-33(49)44-35(29)50/h2-10,18,20-21,29H,11-17,19H2,1H3,(H,44,49,50)/t29-/m0/s1

> <PUBCHEM_IUPAC_INCHIKEY>
CAEDRMDMTIHSAL-LJAQVGFWSA-N

> <PUBCHEM_XLOGP3_AA>
4.9

> <PUBCHEM_EXACT_MASS>
694.26277143

> <PUBCHEM_MOLECULAR_FORMULA>
C37H33F3N8O3

> <PUBCHEM_MOLECULAR_WEIGHT>
694.7

> <PUBCHEM_SMILES>
CC1=NC(=CC(=N1)N2CCN(CC2)CC3=CC=C(C=C3)CC4=C5C=CC=C6C5=C(C=C4)N(C6=O)[C@H]7CCC(=O)NC7=O)N8C=C(N=C8)C(F)(F)F

> <PUBCHEM_CONNECTIVITY_SMILES>
CC1=NC(=CC(=N1)N2CCN(CC2)CC3=CC=C(C=C3)CC4=C5C=CC=C6C5=C(C=C4)N(C6=O)C7CCC(=O)NC7=O)N8C=C(N=C8)C(F)(F)F

> <PUBCHEM_CACTVS_TPSA>
117

> <PUBCHEM_MONOISOTOPIC_WEIGHT>
694.26277143

> <PUBCHEM_TOTAL_CHARGE>
0

> <PUBCHEM_HEAVY_ATOM_COUNT>
51

> <PUBCHEM_ATOM_DEF_STEREO_COUNT>
1

> <PUBCHEM_ATOM_UDEF_STEREO_COUNT>
0

> <PUBCHEM_BOND_DEF_STEREO_COUNT>
0

> <PUBCHEM_BOND_UDEF_STEREO_COUNT>
0

> <PUBCHEM_ISOTOPIC_ATOM_COUNT>
0

> <PUBCHEM_COMPONENT_COUNT>
1

> <PUBCHEM_CACTVS_TAUTO_COUNT>
-1

> <PUBCHEM_COORDINATE_TYPE>
1
5
255

> <PUBCHEM_BONDANNOTATIONS>
11  37  8
11  46  8
12  45  8
12  46  8
13  48  8
13  49  8
14  49  8
14  50  8
16  17  8
16  30  8
17  23  8
17  24  8
23  34  8
24  27  8
24  35  8
27  32  8
30  32  8
33  40  8
33  41  8
34  39  8
35  39  8
36  42  8
36  43  8
37  44  8
40  42  8
41  43  8
44  45  8
48  50  8
15  7  5

$$$$
