2724868
  -OEChem-09082500242D

 40 44  0     0  0  0  0  0  0999 V2000
    4.9775   -1.3066    0.0000 C   0  0  0  0  0  0  0  0  0  0  0  0
    4.0536   -0.9239    0.0000 C   0  0  0  0  0  0  0  0  0  0  0  0
    5.9014   -0.9239    0.0000 C   0  0  0  0  0  0  0  0  0  0  0  0
    3.6710    0.0000    0.0000 C   0  0  0  0  0  0  0  0  0  0  0  0
    6.2841    0.0000    0.0000 C   0  0  0  0  0  0  0  0  0  0  0  0
    4.0536    0.9239    0.0000 C   0  0  0  0  0  0  0  0  0  0  0  0
    5.9014    0.9239    0.0000 C   0  0  0  0  0  0  0  0  0  0  0  0
    4.9775    1.3066    0.0000 C   0  0  0  0  0  0  0  0  0  0  0  0
    4.8257   -2.3371    0.0000 C   0  0  0  0  0  0  0  0  0  0  0  0
    3.4324   -1.7599    0.0000 C   0  0  0  0  0  0  0  0  0  0  0  0
    6.7375   -1.5452    0.0000 C   0  0  0  0  0  0  0  0  0  0  0  0
    2.6405    0.1519    0.0000 C   0  0  0  0  0  0  0  0  0  0  0  0
    7.3146   -0.1519    0.0000 C   0  0  0  0  0  0  0  0  0  0  0  0
    3.2176    1.5452    0.0000 C   0  0  0  0  0  0  0  0  0  0  0  0
    6.5227    1.7599    0.0000 C   0  0  0  0  0  0  0  0  0  0  0  0
    5.1294    2.3371    0.0000 C   0  0  0  0  0  0  0  0  0  0  0  0
    5.6471   -2.9775    0.0000 C   0  0  0  0  0  0  0  0  0  0  0  0
    2.3986   -1.6319    0.0000 C   0  0  0  0  0  0  0  0  0  0  0  0
    6.6095   -2.5789    0.0000 C   0  0  0  0  0  0  0  0  0  0  0  0
    2.0000   -0.6696    0.0000 C   0  0  0  0  0  0  0  0  0  0  0  0
    7.9550    0.6696    0.0000 C   0  0  0  0  0  0  0  0  0  0  0  0
    3.3456    2.5789    0.0000 C   0  0  0  0  0  0  0  0  0  0  0  0
    7.5564    1.6319    0.0000 C   0  0  0  0  0  0  0  0  0  0  0  0
    4.3079    2.9775    0.0000 C   0  0  0  0  0  0  0  0  0  0  0  0
    4.2501   -2.5677    0.0000 H   0  0  0  0  0  0  0  0  0  0  0  0
    3.6762   -2.3300    0.0000 H   0  0  0  0  0  0  0  0  0  0  0  0
    7.3075   -1.3013    0.0000 H   0  0  0  0  0  0  0  0  0  0  0  0
    2.4098    0.7274    0.0000 H   0  0  0  0  0  0  0  0  0  0  0  0
    7.5452   -0.7274    0.0000 H   0  0  0  0  0  0  0  0  0  0  0  0
    2.6476    1.3013    0.0000 H   0  0  0  0  0  0  0  0  0  0  0  0
    6.2788    2.3300    0.0000 H   0  0  0  0  0  0  0  0  0  0  0  0
    5.7049    2.5677    0.0000 H   0  0  0  0  0  0  0  0  0  0  0  0
    5.5638   -3.5919    0.0000 H   0  0  0  0  0  0  0  0  0  0  0  0
    2.0231   -2.1253    0.0000 H   0  0  0  0  0  0  0  0  0  0  0  0
    7.1028   -2.9544    0.0000 H   0  0  0  0  0  0  0  0  0  0  0  0
    1.3856   -0.5863    0.0000 H   0  0  0  0  0  0  0  0  0  0  0  0
    8.5694    0.5863    0.0000 H   0  0  0  0  0  0  0  0  0  0  0  0
    2.8523    2.9544    0.0000 H   0  0  0  0  0  0  0  0  0  0  0  0
    7.9320    2.1253    0.0000 H   0  0  0  0  0  0  0  0  0  0  0  0
    4.3912    3.5919    0.0000 H   0  0  0  0  0  0  0  0  0  0  0  0
  1  2  2  3  0  0  0
  1  3  1  0  0  0  0
  1  9  1  0  0  0  0
  2  4  1  0  0  0  0
  2 10  1  0  0  0  0
  3  5  2  3  0  0  0
  3 11  1  0  0  0  0
  4  6  2  3  0  0  0
  4 12  1  0  0  0  0
  5  7  1  0  0  0  0
  5 13  1  0  0  0  0
  6  8  1  0  0  0  0
  6 14  1  0  0  0  0
  7  8  2  3  0  0  0
  7 15  1  0  0  0  0
  8 16  1  0  0  0  0
  9 17  2  0  0  0  0
  9 25  1  0  0  0  0
 10 18  2  0  0  0  0
 10 26  1  0  0  0  0
 11 19  2  0  0  0  0
 11 27  1  0  0  0  0
 12 20  2  0  0  0  0
 12 28  1  0  0  0  0
 13 21  2  0  0  0  0
 13 29  1  0  0  0  0
 14 22  2  0  0  0  0
 14 30  1  0  0  0  0
 15 23  2  0  0  0  0
 15 31  1  0  0  0  0
 16 24  2  0  0  0  0
 16 32  1  0  0  0  0
 17 19  1  0  0  0  0
 17 33  1  0  0  0  0
 18 20  1  0  0  0  0
 18 34  1  0  0  0  0
 19 35  1  0  0  0  0
 20 36  1  0  0  0  0
 21 23  1  0  0  0  0
 21 37  1  0  0  0  0
 22 24  1  0  0  0  0
 22 38  1  0  0  0  0
 23 39  1  0  0  0  0
 24 40  1  0  0  0  0
M  END
> <PUBCHEM_COMPOUND_CID>
2724868

> <PUBCHEM_COMPOUND_CANONICALIZED>
1

> <PUBCHEM_CACTVS_COMPLEXITY>
762

> <PUBCHEM_CACTVS_HBOND_ACCEPTOR>
0

> <PUBCHEM_CACTVS_HBOND_DONOR>
0

> <PUBCHEM_CACTVS_ROTATABLE_BOND>
0

> <PUBCHEM_CACTVS_SUBSKEYS>
AAADceB4AAAAAAAAAAAAAAAAAAAAAAAAAAAgQIEAAAAQAAAAAAAAGAAAAAAADACAAAAAAAAAAACAAiBCAAAAAAAgAAAICAAAAAgIAAAAAQAAAAAAgAAIgAIAAAAAAAAAAAAAAAAAAAAAAAAAAAAAAAAAAA==

> <PUBCHEM_IUPAC_OPENEYE_NAME>
tetraphenylene

> <PUBCHEM_IUPAC_CAS_NAME>
tetraphenylene

> <PUBCHEM_IUPAC_NAME_MARKUP>
tetraphenylene

> <PUBCHEM_IUPAC_NAME>
tetraphenylene

> <PUBCHEM_IUPAC_SYSTEMATIC_NAME>
tetraphenylene

> <PUBCHEM_IUPAC_TRADITIONAL_NAME>
tetraphenylene

> <PUBCHEM_IUPAC_INCHI>
InChI=1S/C24H16/c1-2-10-18-17(9-1)19-11-3-4-13-21(19)23-15-7-8-16-24(23)22-14-6-5-12-20(18)22/h1-16H

> <PUBCHEM_IUPAC_INCHIKEY>
KTQYWNARBMKMCX-UHFFFAOYSA-N

> <PUBCHEM_XLOGP3_AA>
4.7

> <PUBCHEM_EXACT_MASS>
304.125200510

> <PUBCHEM_MOLECULAR_FORMULA>
C24H16

> <PUBCHEM_MOLECULAR_WEIGHT>
304.4

> <PUBCHEM_SMILES>
C1=CC2=C3C=CC=CC3=C4C=CC=CC4=C5C=CC=CC5=C2C=C1

> <PUBCHEM_CONNECTIVITY_SMILES>
C1=CC2=C3C=CC=CC3=C4C=CC=CC4=C5C=CC=CC5=C2C=C1

> <PUBCHEM_CACTVS_TPSA>
0

> <PUBCHEM_MONOISOTOPIC_WEIGHT>
304.125200510

> <PUBCHEM_TOTAL_CHARGE>
0

> <PUBCHEM_HEAVY_ATOM_COUNT>
24

> <PUBCHEM_ATOM_DEF_STEREO_COUNT>
0

> <PUBCHEM_ATOM_UDEF_STEREO_COUNT>
0

> <PUBCHEM_BOND_DEF_STEREO_COUNT>
0

> <PUBCHEM_BOND_UDEF_STEREO_COUNT>
4

> <PUBCHEM_ISOTOPIC_ATOM_COUNT>
0

> <PUBCHEM_COMPONENT_COUNT>
1

> <PUBCHEM_CACTVS_TAUTO_COUNT>
-1

> <PUBCHEM_COORDINATE_TYPE>
1
5
255

> <PUBCHEM_BONDANNOTATIONS>
1  2  1
1  3  8
1  9  8
10  18  8
11  19  8
12  20  8
13  21  8
14  22  8
15  23  8
16  24  8
17  19  8
18  20  8
2  10  8
2  4  8
21  23  8
22  24  8
3  11  8
3  5  1
4  12  8
4  6  1
5  13  8
5  7  8
6  14  8
6  8  8
7  15  8
7  8  1
8  16  8
9  17  8

$$$$
