362911
  -OEChem-09082500102D

 51 54  0     0  0  0  0  0  0999 V2000
    2.4643   -0.5498    0.0000 O   0  0  0  0  0  0  0  0  0  0  0  0
    8.5105    0.0856    0.0000 O   0  0  0  0  0  0  0  0  0  0  0  0
    2.6863   -3.0460    0.0000 O   0  0  0  0  0  0  0  0  0  0  0  0
    2.6161    2.3483    0.0000 O   0  0  0  0  0  0  0  0  0  0  0  0
    7.7594    2.8889    0.0000 O   0  0  0  0  0  0  0  0  0  0  0  0
    5.8228   -3.4231    0.0000 O   0  0  0  0  0  0  0  0  0  0  0  0
    5.0501    3.9289    0.0000 O   0  0  0  0  0  0  0  0  0  0  0  0
    3.7860   -2.0178    0.0000 C   0  0  0  0  0  0  0  0  0  0  0  0
    7.5228   -1.6251    0.0000 C   0  0  0  0  0  0  0  0  0  0  0  0
    4.7196   -2.3762    0.0000 C   0  0  0  0  0  0  0  0  0  0  0  0
    6.6842   -2.1697    0.0000 C   0  0  0  0  0  0  0  0  0  0  0  0
    3.6856   -3.0087    0.0000 C   0  0  0  0  0  0  0  0  0  0  0  0
    5.7182   -2.4285    0.0000 C   0  0  0  0  0  0  0  0  0  0  0  0
    3.0089   -1.3885    0.0000 C   0  0  0  0  0  0  0  0  0  0  0  0
    8.1522   -0.8479    0.0000 C   0  0  0  0  0  0  0  0  0  0  0  0
    4.2181   -3.8307    0.0000 C   0  0  0  0  0  0  0  0  0  0  0  0
    7.4267   -2.8334    0.0000 C   0  0  0  0  0  0  0  0  0  0  0  0
    2.0000   -2.5501    0.0000 C   0  0  0  0  0  0  0  0  0  0  0  0
    8.7345   -1.6558    0.0000 C   0  0  0  0  0  0  0  0  0  0  0  0
    2.6827   -3.9289    0.0000 C   0  0  0  0  0  0  0  0  0  0  0  0
    8.3928   -2.5912    0.0000 C   0  0  0  0  0  0  0  0  0  0  0  0
    2.2054    0.4161    0.0000 C   0  0  0  0  0  0  0  0  0  0  0  0
    8.5629    1.0843    0.0000 C   0  0  0  0  0  0  0  0  0  0  0  0
    2.2578    1.4147    0.0000 C   0  0  0  0  0  0  0  0  0  0  0  0
    8.3041    2.0502    0.0000 C   0  0  0  0  0  0  0  0  0  0  0  0
    3.2455    3.1254    0.0000 C   0  0  0  0  0  0  0  0  0  0  0  0
    6.9823    3.5182    0.0000 C   0  0  0  0  0  0  0  0  0  0  0  0
    4.0841    3.6701    0.0000 C   0  0  0  0  0  0  0  0  0  0  0  0
    6.0487    3.8766    0.0000 C   0  0  0  0  0  0  0  0  0  0  0  0
    4.5940   -4.3238    0.0000 H   0  0  0  0  0  0  0  0  0  0  0  0
    7.2782   -3.4353    0.0000 H   0  0  0  0  0  0  0  0  0  0  0  0
    1.3851   -2.4711    0.0000 H   0  0  0  0  0  0  0  0  0  0  0  0
    9.3487   -1.5710    0.0000 H   0  0  0  0  0  0  0  0  0  0  0  0
    2.3727   -4.4658    0.0000 H   0  0  0  0  0  0  0  0  0  0  0  0
    8.8076   -3.0520    0.0000 H   0  0  0  0  0  0  0  0  0  0  0  0
    1.6530    0.6976    0.0000 H   0  0  0  0  0  0  0  0  0  0  0  0
    2.8220    0.4809    0.0000 H   0  0  0  0  0  0  0  0  0  0  0  0
    9.1153    0.8028    0.0000 H   0  0  0  0  0  0  0  0  0  0  0  0
    7.9463    1.0195    0.0000 H   0  0  0  0  0  0  0  0  0  0  0  0
    1.8194    1.8531    0.0000 H   0  0  0  0  0  0  0  0  0  0  0  0
    2.8642    1.2858    0.0000 H   0  0  0  0  0  0  0  0  0  0  0  0
    8.9164    1.9532    0.0000 H   0  0  0  0  0  0  0  0  0  0  0  0
    7.7377    1.7980    0.0000 H   0  0  0  0  0  0  0  0  0  0  0  0
    3.1485    3.7378    0.0000 H   0  0  0  0  0  0  0  0  0  0  0  0
    3.6603    2.6647    0.0000 H   0  0  0  0  0  0  0  0  0  0  0  0
    7.5347    3.7997    0.0000 H   0  0  0  0  0  0  0  0  0  0  0  0
    6.6723    2.9813    0.0000 H   0  0  0  0  0  0  0  0  0  0  0  0
    4.1811    4.2824    0.0000 H   0  0  0  0  0  0  0  0  0  0  0  0
    4.3363    3.1037    0.0000 H   0  0  0  0  0  0  0  0  0  0  0  0
    6.4871    4.3150    0.0000 H   0  0  0  0  0  0  0  0  0  0  0  0
    5.9198    3.2701    0.0000 H   0  0  0  0  0  0  0  0  0  0  0  0
  1 14  1  0  0  0  0
  1 22  1  0  0  0  0
  2 15  1  0  0  0  0
  2 23  1  0  0  0  0
  3 12  2  0  0  0  0
  4 24  1  0  0  0  0
  4 26  1  0  0  0  0
  5 25  1  0  0  0  0
  5 27  1  0  0  0  0
  6 13  2  0  0  0  0
  7 28  1  0  0  0  0
  7 29  1  0  0  0  0
  8 10  2  0  0  0  0
  8 12  1  0  0  0  0
  8 14  1  0  0  0  0
  9 11  2  0  0  0  0
  9 12  1  0  0  0  0
  9 15  1  0  0  0  0
 10 13  1  0  0  0  0
 10 16  1  0  0  0  0
 11 13  1  0  0  0  0
 11 17  1  0  0  0  0
 14 18  2  0  0  0  0
 15 19  2  0  0  0  0
 16 20  2  0  0  0  0
 16 30  1  0  0  0  0
 17 21  2  0  0  0  0
 17 31  1  0  0  0  0
 18 20  1  0  0  0  0
 18 32  1  0  0  0  0
 19 21  1  0  0  0  0
 19 33  1  0  0  0  0
 20 34  1  0  0  0  0
 21 35  1  0  0  0  0
 22 24  1  0  0  0  0
 22 36  1  0  0  0  0
 22 37  1  0  0  0  0
 23 25  1  0  0  0  0
 23 38  1  0  0  0  0
 23 39  1  0  0  0  0
 24 40  1  0  0  0  0
 24 41  1  0  0  0  0
 25 42  1  0  0  0  0
 25 43  1  0  0  0  0
 26 28  1  0  0  0  0
 26 44  1  0  0  0  0
 26 45  1  0  0  0  0
 27 29  1  0  0  0  0
 27 46  1  0  0  0  0
 27 47  1  0  0  0  0
 28 48  1  0  0  0  0
 28 49  1  0  0  0  0
 29 50  1  0  0  0  0
 29 51  1  0  0  0  0
M  END
> <PUBCHEM_COMPOUND_CID>
362911

> <PUBCHEM_COMPOUND_CANONICALIZED>
1

> <PUBCHEM_CACTVS_COMPLEXITY>
521

> <PUBCHEM_CACTVS_HBOND_ACCEPTOR>
7

> <PUBCHEM_CACTVS_HBOND_DONOR>
0

> <PUBCHEM_CACTVS_ROTATABLE_BOND>
0

> <PUBCHEM_CACTVS_SUBSKEYS>
AAADceB4OAAAAAAAAAAAAAAAAAAAAAAAAAAwYMAAAAAAAADBQAAAGgAAAAAADASgmAIwBoAABACIAqBSAAACCAAkIAAIiAEGCMgNJjaENRqCOWCk4BEKqYeL6PyOgAABAAAYAACAAAYAADAAAAAAAAAAAA==

> <PUBCHEM_IUPAC_OPENEYE_NAME>
6,9,12,15,18-pentaoxatetracyclo[21.3.1.05,26.019,24]heptacosa-1(26),2,4,19,21,23-hexaene-25,27-dione

> <PUBCHEM_IUPAC_CAS_NAME>
6,9,12,15,18-pentaoxatetracyclo[21.3.1.05,26.019,24]heptacosa-1(26),2,4,19,21,23-hexaene-25,27-dione

> <PUBCHEM_IUPAC_NAME_MARKUP>
6,9,12,15,18-pentaoxatetracyclo[21.3.1.0<SUP>5,26</SUP>.0<SUP>19,24</SUP>]heptacosa-1(26),2,4,19,21,23-hexaene-25,27-dione

> <PUBCHEM_IUPAC_NAME>
6,9,12,15,18-pentaoxatetracyclo[21.3.1.05,26.019,24]heptacosa-1(26),2,4,19,21,23-hexaene-25,27-dione

> <PUBCHEM_IUPAC_SYSTEMATIC_NAME>
6,9,12,15,18-pentaoxatetracyclo[21.3.1.05,26.019,24]heptacosa-1(26),2,4,19,21,23-hexaene-25,27-dione

> <PUBCHEM_IUPAC_TRADITIONAL_NAME>
6,9,12,15,18-pentaoxatetracyclo[21.3.1.05,26.019,24]heptacosa-1(26),2,4,19,21,23-hexaene-25,27-quinone

> <PUBCHEM_IUPAC_INCHI>
InChI=1S/C22H22O7/c23-21-15-3-1-5-17-19(15)22(24)20-16(21)4-2-6-18(20)29-14-12-27-10-8-25-7-9-26-11-13-28-17/h1-6H,7-14H2

> <PUBCHEM_IUPAC_INCHIKEY>
CDVLSTFERMNIJY-UHFFFAOYSA-N

> <PUBCHEM_XLOGP3_AA>
2.1

> <PUBCHEM_EXACT_MASS>
398.13655304

> <PUBCHEM_MOLECULAR_FORMULA>
C22H22O7

> <PUBCHEM_MOLECULAR_WEIGHT>
398.4

> <PUBCHEM_SMILES>
C1COCCOC2=CC=CC3=C2C(=O)C4=C(C3=O)C=CC=C4OCCOCCO1

> <PUBCHEM_CONNECTIVITY_SMILES>
C1COCCOC2=CC=CC3=C2C(=O)C4=C(C3=O)C=CC=C4OCCOCCO1

> <PUBCHEM_CACTVS_TPSA>
80.3

> <PUBCHEM_MONOISOTOPIC_WEIGHT>
398.13655304

> <PUBCHEM_TOTAL_CHARGE>
0

> <PUBCHEM_HEAVY_ATOM_COUNT>
29

> <PUBCHEM_ATOM_DEF_STEREO_COUNT>
0

> <PUBCHEM_ATOM_UDEF_STEREO_COUNT>
0

> <PUBCHEM_BOND_DEF_STEREO_COUNT>
0

> <PUBCHEM_BOND_UDEF_STEREO_COUNT>
0

> <PUBCHEM_ISOTOPIC_ATOM_COUNT>
0

> <PUBCHEM_COMPONENT_COUNT>
1

> <PUBCHEM_CACTVS_TAUTO_COUNT>
-1

> <PUBCHEM_COORDINATE_TYPE>
1
5
255

> <PUBCHEM_BONDANNOTATIONS>
10  16  8
11  17  8
14  18  8
15  19  8
16  20  8
17  21  8
18  20  8
19  21  8
8  10  8
8  14  8
9  11  8
9  15  8

$$$$
