627851
  -OEChem-09082500202D

 42 45  0     0  0  0  0  0  0999 V2000
    3.0306    1.6464    0.0000 C   0  0  0  0  0  0  0  0  0  0  0  0
    3.0306   -1.6464    0.0000 C   0  0  0  0  0  0  0  0  0  0  0  0
    6.0012    3.0670    0.0000 C   0  0  0  0  0  0  0  0  0  0  0  0
    6.0012   -3.0670    0.0000 C   0  0  0  0  0  0  0  0  0  0  0  0
    8.5644    1.0000    0.0000 C   0  0  0  0  0  0  0  0  0  0  0  0
    8.5644   -1.0000    0.0000 C   0  0  0  0  0  0  0  0  0  0  0  0
    2.6091    0.5754    0.0000 C   0  0  0  0  0  0  0  0  0  0  0  0
    2.6091   -0.5754    0.0000 C   0  0  0  0  0  0  0  0  0  0  0  0
    7.0994    2.7228    0.0000 C   0  0  0  0  0  0  0  0  0  0  0  0
    7.9953    2.0003    0.0000 C   0  0  0  0  0  0  0  0  0  0  0  0
    7.0994   -2.7228    0.0000 C   0  0  0  0  0  0  0  0  0  0  0  0
    7.9953   -2.0003    0.0000 C   0  0  0  0  0  0  0  0  0  0  0  0
    4.8532   -2.9852    0.0000 C   0  0  0  0  0  0  0  0  0  0  0  0
    4.0371    2.0853    0.0000 C   0  0  0  0  0  0  0  0  0  0  0  0
    3.8149   -2.4887    0.0000 C   0  0  0  0  0  0  0  0  0  0  0  0
    3.8149    2.4887    0.0000 C   0  0  0  0  0  0  0  0  0  0  0  0
    4.0371   -2.0853    0.0000 C   0  0  0  0  0  0  0  0  0  0  0  0
    5.0277   -2.5590    0.0000 C   0  0  0  0  0  0  0  0  0  0  0  0
    5.0277    2.5590    0.0000 C   0  0  0  0  0  0  0  0  0  0  0  0
    4.8532    2.9852    0.0000 C   0  0  0  0  0  0  0  0  0  0  0  0
    7.6984   -0.5000    0.0000 C   0  0  0  0  0  0  0  0  0  0  0  0
    7.6984    0.5000    0.0000 C   0  0  0  0  0  0  0  0  0  0  0  0
    9.4304   -0.5000    0.0000 C   0  0  0  0  0  0  0  0  0  0  0  0
    9.4304    0.5000    0.0000 C   0  0  0  0  0  0  0  0  0  0  0  0
    2.0000    0.6910    0.0000 H   0  0  0  0  0  0  0  0  0  0  0  0
    2.0000   -0.6910    0.0000 H   0  0  0  0  0  0  0  0  0  0  0  0
    7.3918    3.2695    0.0000 H   0  0  0  0  0  0  0  0  0  0  0  0
    8.4676    2.4020    0.0000 H   0  0  0  0  0  0  0  0  0  0  0  0
    7.3918   -3.2695    0.0000 H   0  0  0  0  0  0  0  0  0  0  0  0
    8.4676   -2.4020    0.0000 H   0  0  0  0  0  0  0  0  0  0  0  0
    4.6946   -3.5846    0.0000 H   0  0  0  0  0  0  0  0  0  0  0  0
    3.4479   -2.9883    0.0000 H   0  0  0  0  0  0  0  0  0  0  0  0
    3.4479    2.9883    0.0000 H   0  0  0  0  0  0  0  0  0  0  0  0
    4.2948    1.5214    0.0000 H   0  0  0  0  0  0  0  0  0  0  0  0
    5.3049   -2.0044    0.0000 H   0  0  0  0  0  0  0  0  0  0  0  0
    4.6946    3.5846    0.0000 H   0  0  0  0  0  0  0  0  0  0  0  0
    5.3049    2.0044    0.0000 H   0  0  0  0  0  0  0  0  0  0  0  0
    4.2948   -1.5214    0.0000 H   0  0  0  0  0  0  0  0  0  0  0  0
    7.1614   -0.8100    0.0000 H   0  0  0  0  0  0  0  0  0  0  0  0
    9.9674   -0.8100    0.0000 H   0  0  0  0  0  0  0  0  0  0  0  0
    7.1614    0.8100    0.0000 H   0  0  0  0  0  0  0  0  0  0  0  0
    9.9674    0.8100    0.0000 H   0  0  0  0  0  0  0  0  0  0  0  0
  1  7  2  0  0  0  0
  1 14  1  0  0  0  0
  1 16  1  0  0  0  0
  2  8  2  0  0  0  0
  2 15  1  0  0  0  0
  2 17  1  0  0  0  0
  3  9  2  0  0  0  0
  3 19  1  0  0  0  0
  3 20  1  0  0  0  0
  4 11  2  0  0  0  0
  4 13  1  0  0  0  0
  4 18  1  0  0  0  0
  5 10  2  0  0  0  0
  5 22  1  0  0  0  0
  5 24  1  0  0  0  0
  6 12  2  0  0  0  0
  6 21  1  0  0  0  0
  6 23  1  0  0  0  0
  7  8  1  0  0  0  0
  7 25  1  0  0  0  0
  8 26  1  0  0  0  0
  9 10  1  0  0  0  0
  9 27  1  0  0  0  0
 10 28  1  0  0  0  0
 11 12  1  0  0  0  0
 11 29  1  0  0  0  0
 12 30  1  0  0  0  0
 13 15  2  0  0  0  0
 13 31  1  0  0  0  0
 14 19  2  0  0  0  0
 14 34  1  0  0  0  0
 15 32  1  0  0  0  0
 16 20  2  0  0  0  0
 16 33  1  0  0  0  0
 17 18  2  0  0  0  0
 17 38  1  0  0  0  0
 18 35  1  0  0  0  0
 19 37  1  0  0  0  0
 20 36  1  0  0  0  0
 21 22  2  0  0  0  0
 21 39  1  0  0  0  0
 22 41  1  0  0  0  0
 23 24  2  0  0  0  0
 23 40  1  0  0  0  0
 24 42  1  0  0  0  0
M  END
> <PUBCHEM_COMPOUND_CID>
627851

> <PUBCHEM_COMPOUND_CANONICALIZED>
1

> <PUBCHEM_CACTVS_COMPLEXITY>
671

> <PUBCHEM_CACTVS_HBOND_ACCEPTOR>
0

> <PUBCHEM_CACTVS_HBOND_DONOR>
0

> <PUBCHEM_CACTVS_ROTATABLE_BOND>
0

> <PUBCHEM_CACTVS_SUBSKEYS>
AAADceB4AAAAAAAAAAAAAAAAAAAAAAAAAAAgQIAAAAAAAAAAAAAAGAAAAAAADACAAAAAAAAAAACAAiBCAAAAAAAgAAAICAAAAAgIAAAAAQAAAAAAAAAIgAIAAAAAAAAAAAAAAAAAAAAAAAAAAAAAAAAAAA==

> <PUBCHEM_IUPAC_OPENEYE_NAME>
tetracyclo[14.2.2.24,7.210,13]tetracosa-1,3,5,7,9,11,13,15,17,19,21,23-dodecaene

> <PUBCHEM_IUPAC_CAS_NAME>
tetracyclo[14.2.2.24,7.210,13]tetracosa-1,3,5,7,9,11,13,15,17,19,21,23-dodecaene

> <PUBCHEM_IUPAC_NAME_MARKUP>
tetracyclo[14.2.2.2<SUP>4,7</SUP>.2<SUP>10,13</SUP>]tetracosa-1,3,5,7,9,11,13,15,17,19,21,23-dodecaene

> <PUBCHEM_IUPAC_NAME>
tetracyclo[14.2.2.24,7.210,13]tetracosa-1,3,5,7,9,11,13,15,17,19,21,23-dodecaene

> <PUBCHEM_IUPAC_SYSTEMATIC_NAME>
tetracyclo[14.2.2.24,7.210,13]tetracosa-1,3,5,7,9,11,13,15,17,19,21,23-dodecaene

> <PUBCHEM_IUPAC_TRADITIONAL_NAME>
tetracyclo[14.2.2.24,7.210,13]tetracosa-1,3,5,7,9,11,13,15,17,19,21,23-dodecaene

> <PUBCHEM_IUPAC_INCHI>
InChI=1S/C24H18/c1-2-20-4-3-19(1)13-14-21-5-7-23(8-6-21)17-18-24-11-9-22(10-12-24)16-15-20/h1-18H

> <PUBCHEM_IUPAC_INCHIKEY>
WZNVKQUTXXVJJQ-UHFFFAOYSA-N

> <PUBCHEM_XLOGP3_AA>
7.6

> <PUBCHEM_EXACT_MASS>
306.140850574

> <PUBCHEM_MOLECULAR_FORMULA>
C24H18

> <PUBCHEM_MOLECULAR_WEIGHT>
306.4

> <PUBCHEM_SMILES>
C1=CC2=CC=C3C=CC(=CC=C4C=CC(=CC=C1C=C2)C=C4)C=C3

> <PUBCHEM_CONNECTIVITY_SMILES>
C1=CC2=CC=C3C=CC(=CC=C4C=CC(=CC=C1C=C2)C=C4)C=C3

> <PUBCHEM_CACTVS_TPSA>
0

> <PUBCHEM_MONOISOTOPIC_WEIGHT>
306.140850574

> <PUBCHEM_TOTAL_CHARGE>
0

> <PUBCHEM_HEAVY_ATOM_COUNT>
24

> <PUBCHEM_ATOM_DEF_STEREO_COUNT>
0

> <PUBCHEM_ATOM_UDEF_STEREO_COUNT>
0

> <PUBCHEM_BOND_DEF_STEREO_COUNT>
0

> <PUBCHEM_BOND_UDEF_STEREO_COUNT>
0

> <PUBCHEM_ISOTOPIC_ATOM_COUNT>
0

> <PUBCHEM_COMPONENT_COUNT>
1

> <PUBCHEM_CACTVS_TAUTO_COUNT>
-1

> <PUBCHEM_COORDINATE_TYPE>
1
5
255

> <PUBCHEM_BONDANNOTATIONS>
1  14  8
1  16  8
1  7  8
11  12  8
13  15  8
14  19  8
16  20  8
17  18  8
2  15  8
2  17  8
2  8  8
21  22  8
23  24  8
3  19  8
3  20  8
3  9  8
4  11  8
4  13  8
4  18  8
5  10  8
5  22  8
5  24  8
6  12  8
6  21  8
6  23  8
7  8  8
9  10  8

$$$$
