71593292
  -OEChem-09082500122D

 56 60  0     0  0  0  0  0  0999 V2000
    2.2792   -1.8998    0.0000 O   0  0  0  0  0  0  0  0  0  0  0  0
    8.4655    1.9609    0.0000 O   0  0  0  0  0  0  0  0  0  0  0  0
   10.2647   -0.1764    0.0000 O   0  0  0  0  0  0  0  0  0  0  0  0
    3.2968   -1.9622    0.0000 O   0  0  0  0  0  0  0  0  0  0  0  0
    6.5995    1.4609    0.0000 C   0  0  0  0  0  0  0  0  0  0  0  0
    7.2807    0.6010    0.0000 C   0  0  0  0  0  0  0  0  0  0  0  0
    5.7335    1.9609    0.0000 C   0  0  0  0  0  0  0  0  0  0  0  0
    7.5786   -0.4548    0.0000 C   0  0  0  0  0  0  0  0  0  0  0  0
    4.6482    2.1209    0.0000 C   0  0  0  0  0  0  0  0  0  0  0  0
    7.4474   -1.5439    0.0000 C   0  0  0  0  0  0  0  0  0  0  0  0
    3.5849    1.8510    0.0000 C   0  0  0  0  0  0  0  0  0  0  0  0
    6.9073   -2.4987    0.0000 C   0  0  0  0  0  0  0  0  0  0  0  0
    2.7073    1.1928    0.0000 C   0  0  0  0  0  0  0  0  0  0  0  0
    7.4655    1.9609    0.0000 C   0  0  0  0  0  0  0  0  0  0  0  0
    6.0415   -3.1723    0.0000 C   0  0  0  0  0  0  0  0  0  0  0  0
    8.0179    1.3217    0.0000 C   0  0  0  0  0  0  0  0  0  0  0  0
    8.5838   -0.6837    0.0000 C   0  0  0  0  0  0  0  0  0  0  0  0
    5.7335    2.9609    0.0000 C   0  0  0  0  0  0  0  0  0  0  0  0
    9.2939    0.0636    0.0000 C   0  0  0  0  0  0  0  0  0  0  0  0
    7.4655    2.9609    0.0000 C   0  0  0  0  0  0  0  0  0  0  0  0
    9.0139    1.0558    0.0000 C   0  0  0  0  0  0  0  0  0  0  0  0
    6.5995    3.4609    0.0000 C   0  0  0  0  0  0  0  0  0  0  0  0
    2.1504    0.2477    0.0000 C   0  0  0  0  0  0  0  0  0  0  0  0
    3.5959    0.7034    0.0000 C   0  0  0  0  0  0  0  0  0  0  0  0
    4.9831   -3.4609    0.0000 C   0  0  0  0  0  0  0  0  0  0  0  0
    5.0142   -3.0027    0.0000 C   0  0  0  0  0  0  0  0  0  0  0  0
    2.0000   -0.8390    0.0000 C   0  0  0  0  0  0  0  0  0  0  0  0
    2.9451   -2.7716    0.0000 C   0  0  0  0  0  0  0  0  0  0  0  0
    3.8952   -3.3201    0.0000 C   0  0  0  0  0  0  0  0  0  0  0  0
    3.9817   -2.8691    0.0000 C   0  0  0  0  0  0  0  0  0  0  0  0
    3.0004   -1.0071    0.0000 C   0  0  0  0  0  0  0  0  0  0  0  0
    3.7299   -0.3021    0.0000 C   0  0  0  0  0  0  0  0  0  0  0  0
    4.9660    2.6532    0.0000 H   0  0  0  0  0  0  0  0  0  0  0  0
    4.6798    1.5017    0.0000 H   0  0  0  0  0  0  0  0  0  0  0  0
    7.8295   -2.0321    0.0000 H   0  0  0  0  0  0  0  0  0  0  0  0
    6.8584   -1.3504    0.0000 H   0  0  0  0  0  0  0  0  0  0  0  0
    3.6735    2.4646    0.0000 H   0  0  0  0  0  0  0  0  0  0  0  0
    3.8523    1.2917    0.0000 H   0  0  0  0  0  0  0  0  0  0  0  0
    7.0722   -3.0964    0.0000 H   0  0  0  0  0  0  0  0  0  0  0  0
    6.4380   -2.0936    0.0000 H   0  0  0  0  0  0  0  0  0  0  0  0
    7.8605    1.9214    0.0000 H   0  0  0  0  0  0  0  0  0  0  0  0
    8.7631   -1.2772    0.0000 H   0  0  0  0  0  0  0  0  0  0  0  0
    5.1965    3.2709    0.0000 H   0  0  0  0  0  0  0  0  0  0  0  0
    8.0024    3.2709    0.0000 H   0  0  0  0  0  0  0  0  0  0  0  0
    9.4492    1.4973    0.0000 H   0  0  0  0  0  0  0  0  0  0  0  0
    6.5995    4.0809    0.0000 H   0  0  0  0  0  0  0  0  0  0  0  0
    1.5649    0.4515    0.0000 H   0  0  0  0  0  0  0  0  0  0  0  0
    4.1076    1.0535    0.0000 H   0  0  0  0  0  0  0  0  0  0  0  0
    5.0257   -4.0794    0.0000 H   0  0  0  0  0  0  0  0  0  0  0  0
    5.1045   -2.3893    0.0000 H   0  0  0  0  0  0  0  0  0  0  0  0
    3.6965   -3.9074    0.0000 H   0  0  0  0  0  0  0  0  0  0  0  0
    4.0505   -2.2529    0.0000 H   0  0  0  0  0  0  0  0  0  0  0  0
    4.3154   -0.5059    0.0000 H   0  0  0  0  0  0  0  0  0  0  0  0
    8.7755    2.4978    0.0000 H   0  0  0  0  0  0  0  0  0  0  0  0
   10.4367   -0.7721    0.0000 H   0  0  0  0  0  0  0  0  0  0  0  0
    3.9015   -2.0991    0.0000 H   0  0  0  0  0  0  0  0  0  0  0  0
  1 27  1  0  0  0  0
  1 28  1  0  0  0  0
  2 14  1  0  0  0  0
  2 54  1  0  0  0  0
  3 19  1  0  0  0  0
  3 55  1  0  0  0  0
  4 31  1  0  0  0  0
  4 56  1  0  0  0  0
  5  6  1  0  0  0  0
  5  7  2  0  0  0  0
  5 14  1  0  0  0  0
  6  8  2  0  0  0  0
  6 16  1  0  0  0  0
  7  9  1  0  0  0  0
  7 18  1  0  0  0  0
  8 10  1  0  0  0  0
  8 17  1  0  0  0  0
  9 11  1  0  0  0  0
  9 33  1  0  0  0  0
  9 34  1  0  0  0  0
 10 12  1  0  0  0  0
 10 35  1  0  0  0  0
 10 36  1  0  0  0  0
 11 13  1  0  0  0  0
 11 37  1  0  0  0  0
 11 38  1  0  0  0  0
 12 15  1  0  0  0  0
 12 39  1  0  0  0  0
 12 40  1  0  0  0  0
 13 23  2  0  0  0  0
 13 24  1  0  0  0  0
 14 20  2  0  0  0  0
 15 25  2  0  0  0  0
 15 26  1  0  0  0  0
 16 21  2  0  0  0  0
 16 41  1  0  0  0  0
 17 19  2  0  0  0  0
 17 42  1  0  0  0  0
 18 22  2  0  0  0  0
 18 43  1  0  0  0  0
 19 21  1  0  0  0  0
 20 22  1  0  0  0  0
 20 44  1  0  0  0  0
 21 45  1  0  0  0  0
 22 46  1  0  0  0  0
 23 27  1  0  0  0  0
 23 47  1  0  0  0  0
 24 32  2  0  0  0  0
 24 48  1  0  0  0  0
 25 29  1  0  0  0  0
 25 49  1  0  0  0  0
 26 30  2  0  0  0  0
 26 50  1  0  0  0  0
 27 31  2  0  0  0  0
 28 29  2  0  0  0  0
 28 30  1  0  0  0  0
 29 51  1  0  0  0  0
 30 52  1  0  0  0  0
 31 32  1  0  0  0  0
 32 53  1  0  0  0  0
M  END
> <PUBCHEM_COMPOUND_CID>
71593292

> <PUBCHEM_COMPOUND_CANONICALIZED>
1

> <PUBCHEM_CACTVS_COMPLEXITY>
588

> <PUBCHEM_CACTVS_HBOND_ACCEPTOR>
4

> <PUBCHEM_CACTVS_HBOND_DONOR>
3

> <PUBCHEM_CACTVS_ROTATABLE_BOND>
0

> <PUBCHEM_CACTVS_SUBSKEYS>
AAADceB4OAAAAAAAAAAAAAAAAAAAAAAAAAAwYMGAAAAAAAABVAAAGgAACAAADASAmAAwBoAABgCAAiBCAAACCAAgIAAIiAAGiIgNJiKGMRqCeCOkwBELuAeAwPAOoAABAAAYQABAAAIAADCAAAAAAAAAAA==

> <PUBCHEM_IUPAC_OPENEYE_NAME>
2-oxapentacyclo[22.2.2.13,7.010,15.016,21]nonacosa-1(26),3,5,7(29),10(15),11,13,16(21),17,19,24,27-dodecaene-4,14,19-triol

> <PUBCHEM_IUPAC_CAS_NAME>
2-oxapentacyclo[22.2.2.13,7.010,15.016,21]nonacosa-1(26),3,5,7(29),10(15),11,13,16(21),17,19,24,27-dodecaene-4,14,19-triol

> <PUBCHEM_IUPAC_NAME_MARKUP>
2-oxapentacyclo[22.2.2.1<SUP>3,7</SUP>.0<SUP>10,15</SUP>.0<SUP>16,21</SUP>]nonacosa-1(26),3,5,7(29),10(15),11,13,16(21),17,19,24,27-dodecaene-4,14,19-triol

> <PUBCHEM_IUPAC_NAME>
2-oxapentacyclo[22.2.2.13,7.010,15.016,21]nonacosa-1(26),3,5,7(29),10(15),11,13,16(21),17,19,24,27-dodecaene-4,14,19-triol

> <PUBCHEM_IUPAC_SYSTEMATIC_NAME>
2-oxapentacyclo[22.2.2.13,7.010,15.016,21]nonacosa-1(26),3,5,7(29),10(15),11,13,16(21),17,19,24,27-dodecaene-4,14,19-triol

> <PUBCHEM_IUPAC_TRADITIONAL_NAME>
2-oxapentacyclo[22.2.2.13,7.010,15.016,21]nonacosa-1(26),3,5,7(29),10(15),11,13,16(21),17,19,24,27-dodecaene-4,14,19-triol

> <PUBCHEM_IUPAC_INCHI>
InChI=1S/C28H24O4/c29-22-11-14-24-21(17-22)10-4-18-6-12-23(13-7-18)32-27-16-19(8-15-25(27)30)5-9-20-2-1-3-26(31)28(20)24/h1-3,6-8,11-17,29-31H,4-5,9-10H2

> <PUBCHEM_IUPAC_INCHIKEY>
LQPHRUVMKWVESR-UHFFFAOYSA-N

> <PUBCHEM_XLOGP3_AA>
6.5

> <PUBCHEM_EXACT_MASS>
424.16745924

> <PUBCHEM_MOLECULAR_FORMULA>
C28H24O4

> <PUBCHEM_MOLECULAR_WEIGHT>
424.5

> <PUBCHEM_SMILES>
C1CC2=C(C=CC(=C2)O)C3=C(CCC4=CC(=C(C=C4)O)OC5=CC=C1C=C5)C=CC=C3O

> <PUBCHEM_CONNECTIVITY_SMILES>
C1CC2=C(C=CC(=C2)O)C3=C(CCC4=CC(=C(C=C4)O)OC5=CC=C1C=C5)C=CC=C3O

> <PUBCHEM_CACTVS_TPSA>
69.9

> <PUBCHEM_MONOISOTOPIC_WEIGHT>
424.16745924

> <PUBCHEM_TOTAL_CHARGE>
0

> <PUBCHEM_HEAVY_ATOM_COUNT>
32

> <PUBCHEM_ATOM_DEF_STEREO_COUNT>
0

> <PUBCHEM_ATOM_UDEF_STEREO_COUNT>
0

> <PUBCHEM_BOND_DEF_STEREO_COUNT>
0

> <PUBCHEM_BOND_UDEF_STEREO_COUNT>
0

> <PUBCHEM_ISOTOPIC_ATOM_COUNT>
0

> <PUBCHEM_COMPONENT_COUNT>
1

> <PUBCHEM_CACTVS_TAUTO_COUNT>
-1

> <PUBCHEM_COORDINATE_TYPE>
1
5
255

> <PUBCHEM_BONDANNOTATIONS>
13  23  8
13  24  8
14  20  8
15  25  8
15  26  8
16  21  8
17  19  8
18  22  8
19  21  8
20  22  8
23  27  8
24  32  8
25  29  8
26  30  8
27  31  8
28  29  8
28  30  8
31  32  8
5  14  8
5  7  8
6  16  8
6  8  8
7  18  8
8  17  8

$$$$
